

 Parallel Execution: Process Information
 ==============================================================================
 Rank   Node Name                              NodeID   MyNodeRank  NodeMaster
    0   node008                                   0          0          0
    1   node008                                   0          1         -1
    2   node008                                   0          2         -1
    3   node008                                   0          3         -1
    4   node008                                   0          4         -1
    5   node008                                   0          5         -1
    6   node008                                   0          6         -1
    7   node008                                   0          7         -1
    8   node008                                   0          8         -1
    9   node008                                   0          9         -1
   10   node008                                   0         10         -1
   11   node008                                   0         11         -1
   12   node008                                   0         12         -1
   13   node008                                   0         13         -1
   14   node008                                   0         14         -1
   15   node008                                   0         15         -1
   16   node008                                   0         16         -1
   17   node008                                   0         17         -1
   18   node008                                   0         18         -1
   19   node008                                   0         19         -1
   20   node008                                   0         20         -1
   21   node008                                   0         21         -1
   22   node008                                   0         22         -1
   23   node008                                   0         23         -1
 ==============================================================================


May use up to 123235MB of RAM as shared memory on node 0

 *******************************************************************************
 *                                                                             *
 *  -------------------------------------                                      *
 *   Amsterdam Density Functional  (ADF)         2018                          *
 *  -------------------------------------                                      *
 *                                               r70352 2018-11-12             *
 *                                                                             *
 *                                                                             *
 *                              =================                              *
 *                              |               |                              *
 *                              |     A M S     |                              *
 *                              |               |                              *
 *                              =================                              *
 *                                                                             *
 *                                                                             *
 *   Online information and documentation:  https://www.scm.com/support/       *
 *   E-mail:  support@scm.com   info@scm.com                                   *
 *                                                                             *
 *   Scientific publications using ADF results must be properly referenced     *
 *   See the User Manuals (or the web site) for recommended citations          *
 *   The terms and conditions of the End User License Agreement apply to       *
 *   the use of ADF, https://www.scm.com/license-terms/                        *
 *                                                                             *
 **********************  x86_64_linux_intel / intelmpi  ************************
 
 Licensed to: Dr. Ralf Tonner / Philipps-Universt?t, Theoretical Surface Chemistry Group / Marburg / DE
 SCM User ID: u12265
  
 AMS 2018  RunTime: Nov21-2018 16:38:53  Nodes: 1  Procs: 24

 AMS jobname: ams
 AMS jobid  : 93130504

 Start   directory: /local/2876835.1.parallel/
 Results directory: /local/2876835.1.parallel/ams.results/
 Scratch directory: /local/2876835.1.parallel/amstmp_ams_kid0.93130504/

       ****************************
       * SINGLE POINT CALCULATION *
       ****************************
 
---------------
Geometry
---------------
Atoms
  Index Symbol       x (bohr)       y (bohr)       z (bohr)
      1      C     7.95274649     6.53111496    17.14262515
      2      C     8.71055586     8.89758851    16.25381087
      3      C     9.14727438     4.36723014    16.22386131
      4      C    10.98390160     4.55910368    14.32223927
      5      C    11.68246334     6.92040535    13.22237967
      6      C    10.55039679     9.08986207    14.35958881
      7      H    11.98560687     2.82978455    13.77423230
      8      H     8.66441028     2.50811422    16.97679550
      9      H     6.48816804     6.37897340    18.58533142
     10      H     7.87298055    10.61733539    17.02807100
     11      H    11.19803359    10.98615261    13.82801331
     12     Cu     6.86690793     4.75753491     1.94224040
     13     Cu     6.86690793     9.51506982     1.94224040
     14     Cu     6.86690793    14.27260473     1.94224040
     15     Cu    15.10719084     4.75753491     1.94224040
     16     Cu    15.10719084     9.51506982     1.94224040
     17     Cu    15.10719084    14.27260473     1.94224040
     18     Cu     2.74674999    11.89384442     1.94224040
     19     Cu     2.74674999    16.65142219     1.94224040
     20     Cu     2.74674999     7.13626665     1.94224040
     21     Cu    10.98703290     2.37877460     1.94224040
     22     Cu    10.98703290     7.13630951     1.94224040
     23     Cu    10.98703290    11.89384442     1.94224040
     24     Cu     4.12576133     0.00180787     5.85152574
     25     Cu     4.11735624     4.75256306     5.85152574
     26     Cu     4.11806491     9.51734144     5.85024385
     27     Cu    12.35960035     4.77839383     5.90635557
     28     Cu    12.36057270     9.49082489     5.91008470
     29     Cu    12.35706234    14.27014737     5.83614309
     30     Cu     8.25605482     2.40753420     5.89749889
     31     Cu     8.24623240     7.12980895     5.89085638
     32     Cu     8.25144026    11.86825652     5.88403907
     33     Cu    16.42527354     7.13600948     5.94347204
     34     Cu    16.49028937    11.88324351     5.84377615
     35     Cu    16.48056584    16.64685037     5.85577928
     36     Cu     1.35937475     4.74916277     9.77654916
     37     Cu     1.35779262     9.52028455     9.77398538
     38     Cu     1.37316899    14.27620504     9.76810035
     39     Cu     9.58486636     4.73651883     9.85800729
     40     Cu     9.55772287     9.52841382     9.80947036
     41     Cu     9.61390512    14.29293504     9.73354766
     42     Cu     5.47825545     2.37163113     9.77147988
     43     Cu     5.42401791     7.13352355     9.74426890
     44     Cu     5.47070735    11.90203083     9.76594445
     45     Cu    13.79388751     2.30033933     9.65377928
     46     Cu    13.78113156     7.13622379    10.09183525
     47     Cu    13.77826394    11.95107788     9.68844852
 
Lattice vectors (bohr)
      1    16.48056584     0.00000000     0.00000000
      2     0.00000000    14.28693452     0.00000000
 
Atoms
  Index Symbol   x (angstrom)   y (angstrom)   z (angstrom)
      1      C     4.20841220     3.45611720     9.07148656
      2      C     4.60942766     4.70840107     8.60114630
      3      C     4.84052914     2.31103867     8.58529768
      4      C     5.81243041     2.41257377     7.57900263
      5      C     6.18209337     3.66212080     6.99698199
      6      C     5.58302955     4.81014786     7.59876716
      7      H     6.34251001     1.49745749     7.28900983
      8      H     4.58500847     1.32723689     8.98373329
      9      H     3.43339067     3.37560735     9.83493384
     10      H     4.16620189     5.61845193     9.01086712
     11      H     5.92574418     5.81362159     7.31746952
     12     Cu     3.63381118     2.51757905     1.02778936
     13     Cu     3.63381118     5.03515811     1.02778936
     14     Cu     3.63381118     7.55273716     1.02778936
     15     Cu     7.99438111     2.51757905     1.02778936
     16     Cu     7.99438111     5.03515811     1.02778936
     17     Cu     7.99438111     7.55273716     1.02778936
     18     Cu     1.45351750     6.29395141     1.02778936
     19     Cu     1.45351750     8.81155315     1.02778936
     20     Cu     1.45351750     3.77634968     1.02778936
     21     Cu     5.81408743     1.25879331     1.02778936
     22     Cu     5.81408743     3.77637236     1.02778936
     23     Cu     5.81408743     6.29395141     1.02778936
     24     Cu     2.18325887     0.00095668     3.09649407
     25     Cu     2.17881109     2.51494806     3.09649407
     26     Cu     2.17918610     5.03636020     3.09581572
     27     Cu     6.54041884     2.52861712     3.12550877
     28     Cu     6.54093339     5.02232824     3.12748214
     29     Cu     6.53907578     7.55143679     3.08835392
     30     Cu     4.36891606     1.27401223     3.12082201
     31     Cu     4.36371826     3.77293241     3.11730695
     32     Cu     4.36647414     6.28041088     3.11369938
     33     Cu     8.69188044     3.77621359     3.14514996
     34     Cu     8.72628533     6.28834166     3.09239316
     35     Cu     8.72113986     8.80913385     3.09874494
     36     Cu     0.71935014     2.51314871     5.17352702
     37     Cu     0.71851291     5.03791762     5.17217032
     38     Cu     0.72664973     7.55464236     5.16905610
     39     Cu     5.07209285     2.50645782     5.21663280
     40     Cu     5.05772913     5.04221945     5.19094817
     41     Cu     5.08745950     7.56349550     5.15077160
     42     Cu     2.89896794     1.25501315     5.17084447
     43     Cu     2.87026667     3.77489810     5.15644504
     44     Cu     2.89497366     6.29828348     5.16791525
     45     Cu     7.29941092     1.21728715     5.10855999
     46     Cu     7.29266076     3.77632700     5.34036923
     47     Cu     7.29114328     6.32423806     5.12690616
 
Lattice vectors (angstrom)
      1     8.72113986     0.00000000     0.00000000
      2     0.00000000     7.56032016     0.00000000
 
Total System Charge             0.00000
 

 *******************************************************************************
 *                                                                             *
 *  -------------------------------------                                      *
 *   Amsterdam Density Functional  (ADF)         2018                          *
 *  -------------------------------------                                      *
 *                                               r70352 2018-11-12             *
 *                                                                             *
 *                                                                             *
 *                             ===================                             *
 *                             |                 |                             *
 *                             |     B A N D     |                             *
 *                             |                 |                             *
 *                             ===================                             *
 *                                                                             *
 *                                                                             *
 *   Online information and documentation:  https://www.scm.com/support/       *
 *   E-mail:  support@scm.com   info@scm.com                                   *
 *                                                                             *
 *   Scientific publications using ADF results must be properly referenced     *
 *   See the User Manuals (or the web site) for recommended citations          *
 *   The terms and conditions of the End User License Agreement apply to       *
 *   the use of ADF, https://www.scm.com/license-terms/                        *
 *                                                                             *
 **********************  x86_64_linux_intel / intelmpi  ************************
 
 Licensed to: Dr. Ralf Tonner / Philipps-Universt?t, Theoretical Surface Chemistry Group / Marburg / DE
 SCM User ID: u12265
  
 BAND 2018  RunTime: Nov21-2018 16:38:55  Nodes: 1  Procs: 24

 AMS jobname: ams
 AMS jobid  : 93130504

 Start   directory: /local/2876835.1.parallel/
 Results directory: /local/2876835.1.parallel/ams.results/
 Scratch directory: /local/2876835.1.parallel/amstmp_ams_kid0.93130504/

 
-----------------
Band Engine Input
-----------------
 
  Basis
   Type DZP
   Core large
  End
  XC
   LDA LDA
   GGA PBE
   dispersion Grimme3 BJdamp
  END
 KSpace
  Regular
  NumberOfPoints 1 1
  end 
 End
 NumericalQuality Good
 Relativity
  Level Scalar
 End
 SCF
  Mixing 0.2
  Iterations 300
 End
 Convergence
 criterion 1E-6
 End
 Fragment
  filename /home/Luyj/test/band/2018/mine/new-18.105/phenylrSmall.band.rkf
  AtomMapping
  1 1
  2 2
  3 3
  4 4
  5 5
  6 6
  7 7
  8 8
  9 9
  10 10
  11 11
  SubEnd
 End
 Fragment
  filename /home/Luyj/test/band/2018/mine/new-18.105/surfaceSmall.band.rkf
  AtomMapping
  1 12
  2 13
  3 14
  4 15
  5 16
  6 17
  7 18
  8 19
  9 20
  10 21
  11 22
  12 23
  13 24
  14 25
  15 26
  16 27
  17 28
  18 29
  19 30
  20 31
  21 32
  22 33
  23 34
  24 35
  25 36
  26 37
  27 38
  28 39
  29 40
  30 41
  31 42
  32 43
  33 44
  34 45
  35 46
  36 47 
 SubEnd
 End
 PEDA True
 PEDANOCV
  Enabled True
 End
 UseSymmetry False
 Unrestricted True
 Dependency basis=1e-8
 

   LockSharedArrayModule: size of slices    32 exact locking     T

 Using the following basis set files:
 
 C              : /home/ag_tonner/chemsoft/lx24-amd64/adf2018.105r70352/atomicdata/Band/DZP/C.1s
 H              : /home/ag_tonner/chemsoft/lx24-amd64/adf2018.105r70352/atomicdata/Band/DZP/H
 Cu             : /home/ag_tonner/chemsoft/lx24-amd64/adf2018.105r70352/atomicdata/Band/TZP/Cu.3p

 Settings for Grimme 3 dispersion correction

      damping                        BJ
      s6                          1.000
      a1                          0.429
      s8                          0.788
      a2                          4.441

 Other (technical) parameters

      alpha                      14.000
      version                         4
 



 =====================
 C O N F I N E M E N T
 =====================
  
 Basis functions confinement radius        20.000
 Width                                      2.000



 ===============================
 M O D E L   P A R A M E T E R S
 ===============================
  
 DENSITY FUNCTIONAL POTENTIAL (scf)
    LDA:                               VWN                                      
    Gradient Corrections:              PBEc PBEx                               == Not Default ==
 DENSITY FUNCTIONAL ENERGY (post-scf)
    Gradient Corrections:              Becke88 Perdew86 PW91x PW91c EV93x PW...== Not Default ==

 SPIN  (restricted / unrestr.)
    Molecule:                          UNrestricted                            == Not Default ==

 OTHER ASPECTS
    Relativistic Corrections:          scalar (ZORA,APA)                       == Not Default ==

    Nuclear Charge Density Model:      Point Charge Nuclei                      



 ========================
 S. C. F.   O P T I O N S
 ========================
  

 * DIIS settings info for DIRAC   *
    Cond              0.1E+07
    CLarge          20.00
    CHuge           50.00
    DiMix            1.00
    IopPly              1
    NCyDmp              5
    IPrint              0
    Adaptable           F
    Method         diis                
    Dimix Decay fac  1.00

 * DIIS settings info for SCF     *
    Cond              0.1E+07
    CLarge          20.00
    CHuge           20.00
    DiMix            0.20
    IopPly              1
    NCyDmp              1
    IPrint              0
    Adaptable           T
    Method         DIIS                
    Dimix Decay fac  1.00
 growth factor   1.10000000000000     
 shrink factor  0.909090909100000     

    Mix            0.2000
    Degenerate          F
    Edegen          1.0E-04
    SCFRTX           9.90
    Convrg          1.0E-06
    Ncyclx            300
    Vsplit          5.0E-02
 getinp: use Shared Memory T
 blockIterator: dynamic default: T

 FunctionSetOverlapModule: use new routines     3


   size of slices for column locking    32 exact locking




                             **  R A D I A L   F U N C T I O N S  **

 TOTAL NR. OF TYPES OF ATOMS                              3




                             ---------------------
                                   T Y P E   1
                             ---------------------

 RADIAL POINTS                                         3000




 ............................ D I R A C ................................

 NUCLEAR CHARGE                                 6.0000               **>  C  <**
 (POINT NUCLEUS)
 VALENCE CHARGE                                 4.0000
 NET CHARGE                                     0.0000

 VALENCE ORBITALS INCLUDED IN THE CRYSTAL BASIS
 NR. OF (RADIAL) CORE FUNCTIONS                 1
 Radial grid       nr of points               3000
                   range                      0.10E-05     0.10E+03
  
  ** SCF-FUNCTIONAL INFO **
    ZORA
    SCALAR
  
 Self consistent error   0.18E-08


  Orbital    Q         E(a.u.)     E(eV)           <R>
 -------------------------------------------------------------------
  1S         2.00    -10.050188       -273.4795   0.271
  2S         2.00     -0.505399        -13.7526   1.571
  2P         2.00     -0.194278         -5.2866   1.799


 Sum (energy eigenvalues)                     -21.4997
 Total energy LDA                             -37.4486
              + Becke88                       -38.0235
              + Becke88+Perdew86              -37.8257
              + Perdew-Wang (91) X            -38.0083
              + Perdew-Wang (91) X+C          -37.8070
              + EV93x+PW91c                   -38.0194
              + PW86x+Perdew86c               -37.8745
              + Becke88+LYP                   -38.1993
              + Becke (alt)                   -38.0235
              + PBE                           -37.7748
              + RPBE                          -37.8379
 Kinetic energy                                37.6740
 Classical e-e repulsion                       17.6991
 e-nucl. attraction.                          -88.0675

 ......................................................................


 Sum first order eigenvalues                  -21.4911
 First order  LDA                             -37.4400
              + Becke88                       -38.0149
              + Becke88+Perdew86              -37.8171
              + Perdew-Wang (91) X            -37.9997
              + Perdew-Wang (91) X+C          -37.7985
              + EV93x+PW91c                   -38.0108
              + PW86x+Perdew86c               -37.8659
              + Becke88+LYP                   -38.1907
              + Becke (alt)                   -38.0149
              + PBE                           -37.7662
              + RPBE                          -37.8293

 ......................................................................




 SLATER TYPE ORBITAL SETS
   2   0    1.9800
   2   1    2.2000
   3   2    2.2000
 nRadialFuncs=           0
 summary of added auto gaussians
                   Type             valence
            Spher. Harm                 zlm
    Nr. of radial func.                   0
 summary of added auto kin gaussians
                   Type     valence kinetic
            Spher. Harm                 zlm
    Nr. of radial func.                   0

 NR. OF RADIAL VALENCE ORBITALS                           5
 NR. OF RADIAL CORE ORBITALS                              1
 NR. OF RADIAL FIT FUNCTIONS                              0




                             ---------------------
                                   T Y P E   2
                             ---------------------

 RADIAL POINTS                                         3000




 ............................ D I R A C ................................

 NUCLEAR CHARGE                                 1.0000               **>  H  <**
 (POINT NUCLEUS)
 VALENCE CHARGE                                 1.0000
 NET CHARGE                                     0.0000

 VALENCE ORBITALS INCLUDED IN THE CRYSTAL BASIS
 Radial grid       nr of points               3000
                   range                      0.10E-05     0.10E+03
  
  ** SCF-FUNCTIONAL INFO **
    ZORA
    SCALAR
  
 Self consistent error   0.58E-08


  Orbital    Q         E(a.u.)     E(eV)           <R>
 -------------------------------------------------------------------
  1S         1.00     -0.238623         -6.4932   1.635


 Sum (energy eigenvalues)                      -0.2386
 Total energy LDA                              -0.4454
              + Becke88                        -0.4891
              + Becke88+Perdew86               -0.4653
              + Perdew-Wang (91) X             -0.4852
              + Perdew-Wang (91) X+C           -0.4603
              + EV93x+PW91c                    -0.4830
              + PW86x+Perdew86c                -0.4666
              + Becke88+LYP                    -0.5024
              + Becke (alt)                    -0.4891
              + PBE                            -0.4589
              + RPBE                           -0.4655
 Kinetic energy                                 0.4474
 Classical e-e repulsion                        0.2899
 e-nucl. attraction.                           -0.9448

 ......................................................................


 Sum first order eigenvalues                   -0.2386
 First order  LDA                              -0.4454
              + Becke88                        -0.4891
              + Becke88+Perdew86               -0.4652
              + Perdew-Wang (91) X             -0.4852
              + Perdew-Wang (91) X+C           -0.4603
              + EV93x+PW91c                    -0.4830
              + PW86x+Perdew86c                -0.4666
              + Becke88+LYP                    -0.5024
              + Becke (alt)                    -0.4891
              + PBE                            -0.4589
              + RPBE                           -0.4655

 ......................................................................




 SLATER TYPE ORBITAL SETS
   1   0    1.2800
   2   1    1.2500
 nRadialFuncs=           0
 summary of added auto gaussians
                   Type             valence
            Spher. Harm                 zlm
    Nr. of radial func.                   0
 summary of added auto kin gaussians
                   Type     valence kinetic
            Spher. Harm                 zlm
    Nr. of radial func.                   0

 NR. OF RADIAL VALENCE ORBITALS                           3
 NR. OF RADIAL CORE ORBITALS                              0
 NR. OF RADIAL FIT FUNCTIONS                              0




                             ---------------------
                                   T Y P E   3
                             ---------------------

 RADIAL POINTS                                         3000




 ............................ D I R A C ................................

 NUCLEAR CHARGE                                29.0000               **>  Cu  <**
 (POINT NUCLEUS)
 VALENCE CHARGE                                11.0000
 NET CHARGE                                     0.0000

 VALENCE ORBITALS INCLUDED IN THE CRYSTAL BASIS
 NR. OF (RADIAL) CORE FUNCTIONS                 5
 Radial grid       nr of points               3000
                   range                      0.10E-05     0.10E+03
  
  ** SCF-FUNCTIONAL INFO **
    ZORA
    SCALAR
  
 Self consistent error   0.71E-08


  Orbital    Q         E(a.u.)     E(eV)           <R>
 -------------------------------------------------------------------
  1S         2.00   -328.701927      -8944.4345   0.052
  2S         2.00    -39.106952      -1064.1543   0.235
  2P         6.00    -33.746027       -918.2761   0.206
  3S         2.00     -4.215480       -114.7091   0.712
  3P         6.00     -2.650795        -72.1318   0.750
  4S         1.00     -0.169306         -4.6070   2.936
  3D        10.00     -0.185354         -5.0437   1.047


 Sum (energy eigenvalues)                    -964.4525
 Total energy LDA                           -1660.0302
              + Becke88                     -1664.1767
              + Becke88+Perdew86            -1663.1599
              + Perdew-Wang (91) X          -1664.1436
              + Perdew-Wang (91) X+C        -1663.0475
              + EV93x+PW91c                 -1663.2155
              + PW86x+Perdew86c             -1663.2642
              + Becke88+LYP                 -1665.5522
              + Becke (alt)                 -1664.1767
              + PBE                         -1662.6404
              + RPBE                        -1662.8513
 Kinetic energy                              1687.4212
 Classical e-e repulsion                      718.4443
 e-nucl. attraction.                        -4000.7992

 ......................................................................


 Sum first order eigenvalues                 -956.6714
 First order  LDA                           -1652.2491
              + Becke88                     -1656.3956
              + Becke88+Perdew86            -1655.3788
              + Perdew-Wang (91) X          -1656.3625
              + Perdew-Wang (91) X+C        -1655.2664
              + EV93x+PW91c                 -1655.4344
              + PW86x+Perdew86c             -1655.4831
              + Becke88+LYP                 -1657.7711
              + Becke (alt)                 -1656.3956
              + PBE                         -1654.8593
              + RPBE                        -1655.0702

 ......................................................................




 SLATER TYPE ORBITAL SETS
   3   2    1.2800
   3   2    6.9000
   4   0    0.8500
   4   0    2.4500
   4   1    1.3700
 nRadialFuncs=           0
 summary of added auto gaussians
                   Type             valence
            Spher. Harm                 zlm
    Nr. of radial func.                   0
 summary of added auto kin gaussians
                   Type     valence kinetic
            Spher. Harm                 zlm
    Nr. of radial func.                   0

 NR. OF RADIAL VALENCE ORBITALS                           7
 NR. OF RADIAL CORE ORBITALS                              5
 NR. OF RADIAL FIT FUNCTIONS                              0



 ======================================================
 R A N G E S    F O R    A T O M I C    O R B I T A L S
 ======================================================
  
   --------------------------------------------------------------------------------
                            valence            core valence kinetic    core kinetic
   --------------------------------------------------------------------------------

             Cutoff       1.000E-07       1.000E-07       1.000E-07       1.000E-07
   --------------------------------------------------------------------------------
 
   --------------------------------------------------------------------------------
               Type         valence            core valence kinetic    core kinetic
   --------------------------------------------------------------------------------
                  C           24.80            4.31           24.95            4.33
                  H           23.61            0.00           24.05            0.00
                 Cu           26.70            8.41           27.19            8.21
   --------------------------------------------------------------------------------
 



 ====================
 R U N    C O N F I G
 ====================
  
 
 Use Symmetry  .  .  .  .  .  .  .  .  .  .  .  .  .  .  .  .  F
 Calculate gradient of basis  .  .  .  .  .  .  .  .  .  .  .  F
 Calculate sec. der. of basis .  .  .  .  .  .  .  .  .  .  .  F
 Calculate operator T working on basis .  .  .  .  .  .  .  .  T
 Calculate dk-basis  .  .  .  .  .  .  .  .  .  .  .  .  .  .  F
 Calculate gradient of fit .  .  .  .  .  .  .  .  .  .  .  .  T
 Calculate sec. der. of fit.  .  .  .  .  .  .  .  .  .  .  .  T
 Calculate gradient of fit pot.  .  .  .  .  .  .  .  .  .  .  F
 Kin. energy via grad.  .  .  .  .  .  .  .  .  .  .  .  .  .  F
 Turnover rule for xc.  .  .  .  .  .  .  .  .  .  .  .  .  .  F
 Calculate gradient of energy .  .  .  .  .  .  .  .  .  .  .  F
 Calculate analytical strain derivatives  .  .  .  .  .  .  .  F
 Calculate kin. energy density.  .  .  .  .  .  .  .  .  .  .  F
 Calculate nuc. grad of kin. energy density  .  .  .  .  .  .  F
 Calculate der. of density .  .  .  .  .  .  .  .  .  .  .  .  T
 Calculate second der. of density.  .  .  .  .  .  .  .  .  .  T
 Calculate nuc. grad. of density .  .  .  .  .  .  .  .  .  .  F
 Calculate nuc. grad. of grad. density .  .  .  .  .  .  .  .  F
 Exact rho during SCF.  .  .  .  .  .  .  .  .  .  .  .  .  .  T
 Exact grad. rho during SCF.  .  .  .  .  .  .  .  .  .  .  .  F
 Exact grad. rho post SCF  .  .  .  .  .  .  .  .  .  .  .  .  F
 Store history of dens. matrix.  .  .  .  .  .  .  .  .  .  .  T
 Store original Bloch functions  .  .  .  .  .  .  .  .  .  .  F
 Direct fit .  .  .  .  .  .  .  .  .  .  .  .  .  .  .  .  .  F
 Direct basis  .  .  .  .  .  .  .  .  .  .  .  .  .  .  .  .  T
 STO based fitting.  .  .  .  .  .  .  .  .  .  .  .  .  .  .  F
 Zlm fitting.  .  .  .  .  .  .  .  .  .  .  .  .  .  .  .  .  T
 Calculate fragment energy in mol. grid.  .  .  .  .  .  .  .  T
 Map atoms to unit cell .  .  .  .  .  .  .  .  .  .  .  .  .  T
 Calculate DOS .  .  .  .  .  .  .  .  .  .  .  .  .  .  .  .  F
 Calculate band structure  .  .  .  .  .  .  .  .  .  .  .  .  F
 Calculate EFG .  .  .  .  .  .  .  .  .  .  .  .  .  .  .  .  F
 Calculate properties.  .  .  .  .  .  .  .  .  .  .  .  .  .  T
 Calculate kinetic energy  .  .  .  .  .  .  .  .  .  .  .  .  T
 Save file tape10 .  .  .  .  .  .  .  .  .  .  .  .  .  .  .  F
 Save file Points .  .  .  .  .  .  .  .  .  .  .  .  .  .  .  F



 ==================================================
 G E O M E T R Y    I N    X - Y - Z    F O R M A T
 ==================================================
  
 C      -3.933843166     2.791288455     4.759474231
 C      -3.532827713    -3.516747836     4.289133972
 C      -3.301726227     1.646209923     4.273285349
 C      -2.329824959     1.747745023     3.266990298
 C      -1.960162004     2.997292058     2.684969665
 C      -2.559225822    -3.415001047     3.286754826
 H      -1.799745357     0.832628750     2.976997500
 H      -3.557246904     0.662408142     4.671720961
 H       4.012275160     2.710778605     5.522921512
 H      -3.976053483    -2.606696977     4.698854790
 H      -2.216511189    -2.411527312     3.005457187
 Cu      4.212695675     1.852750310    -3.284222969
 Cu      4.212695675    -3.189990798    -3.284222969
 Cu      4.212695675    -0.672411745    -3.284222969
 Cu     -0.147874256     1.852750310    -3.284222969
 Cu     -0.147874256    -3.189990798    -3.284222969
 Cu     -0.147874256    -0.672411745    -3.284222969
 Cu      2.032401988    -1.931197491    -3.284222969
 Cu      2.032401988     0.586404243    -3.284222969
 Cu      2.032401988     3.111520936    -3.284222969
 Cu     -2.328167942     0.593964563    -3.284222969
 Cu     -2.328167942     3.111543617    -3.284222969
 Cu     -2.328167942    -1.931197491    -3.284222969
 Cu      2.762143366    -0.663872061    -1.215518259
 Cu      2.757695585     1.850119318    -1.215518259
 Cu      2.758070594    -3.188788708    -1.216196605
 Cu     -1.601836530     1.863788377    -1.186503563
 Cu     -1.601321983    -3.202820662    -1.184530193
 Cu     -1.603179586    -0.673712120    -1.223658408
 Cu     -3.773339308     0.609183488    -1.191190315
 Cu     -3.778537107     3.108103671    -1.194705379
 Cu     -3.775781227    -1.944738025    -1.198312945
 Cu      0.549625068     3.111384850    -1.166862371
 Cu      0.584029965    -1.936807249    -1.219619168
 Cu      0.578884492     0.583984941    -1.213267385
 Cu      1.298234632     1.848319962     0.861514686
 Cu      1.297397403    -3.187231282     0.860157994
 Cu      1.305534226    -0.670506544     0.857043771
 Cu     -3.070162522     1.841629079     0.904620473
 Cu     -3.084526239    -3.182929459     0.878935837
 Cu     -3.054795873    -0.661653409     0.838759270
 Cu      3.477852430     0.590184403     0.858832137
 Cu      3.449151159     3.110069354     0.844432707
 Cu      3.473858148    -1.926865428     0.855902917
 Cu     -0.842844449     0.552458405     0.796547666
 Cu     -0.849594611     3.111498255     1.028356901
 Cu     -0.851112090    -1.900910849     0.814893834
 VEC1     8.721139862     0.000000000     0.000000000
 VEC2     0.000000000     7.560320162     0.000000000

   Total nr. of atoms:         47

 FragmentGeomCheck
   Fragment  1 successfully associated
   Fragment  2 successfully associated
   std/input Atom     9/    9 jumped




                       2 - D I M E N S I O N A L   C R Y S T A L


                             IN K-SPACE ONLY THE GAMMA POINT




   REAL SPACE LATTICE VECTORS                         LENGTH
   --------------------------                         ------
   1)  16.4805658365   0.0000000000                   16.481
   2)   0.0000000000  14.2869345229                   14.287

   ----------------------------------------
   Angles between lattice vectors
   ----------------------------------------

     pair          angle

     2 1            90.000000
 


 SMALLEST INTERATOMIC DISTANCE =      2.061440870099
 BeckeGrid: periodic partition function using cells up to order            5



 ===============================
 K - S P A C E   S A M P L I N G
 ===============================
  
 Custom Regular k-space grid.
 
   Single k-point
 FragmentKPointsCheck



 =========
 C E L L S
 =========
  

   Nr. of cells for valence functions:         41



 ===========================
 L I N E A R   S C A L I N G
 ===========================
  
 Neglecting functions
              Valence  1.00E-07
                 Core  1.00E-07
                  Fit  0.00E+00
            Multipole  1.00E-08
   Screening function  3.16E-05



 =========================================
 N U M E R I C A L   I N T E G R A T I O N
 =========================================
  
 Becke grid quality: GOOD           
  
 Lebedev angular grid order:             min:  11 max:  35
 Nr. of radial points:                   min:  56 max:  91

 Total nr. of points                                 885888
 Block length                                           128
 Nr. of unique blocks                                  6921
 Total nr. of blocks                                   6921

 Percentage dummy points                               0.00%
 Nr. of k-points processed together in baspnt            30
 Nr. of symmetry operators (real space)                   1
 Symmetry operators in k-space                            2



 Total charge,    analytically                         1085.000000000000
                  numerically                          1084.999547768427
                  relative error                     -0.42E-06

 Valence density, analytically                          425.000000000000
                  numerically                           424.999586501482
                  relative error                     -0.97E-06



 INTEGRATED CHARGE PER ATOM:

  SET      TOTAL CHARGE      REL. ERROR      Valence CHARGE    REL. ERROR
 ------------------------------------------------------------------------
   1       5.9999971471      -0.475E-06      4.0000001489       0.372E-07
   2       5.9999973298      -0.445E-06      3.9999992865      -0.178E-06
   3       5.9999986794      -0.220E-06      4.0000004504       0.113E-06
   4       5.9999988810      -0.186E-06      4.0000017810       0.445E-06
   5       5.9999983908      -0.268E-06      4.0000020837       0.521E-06
   6       5.9999963108      -0.615E-06      4.0000001152       0.288E-07
   7       0.9999979198      -0.208E-05      0.9999979198      -0.208E-05
   8       1.0000009992       0.999E-06      1.0000009992       0.999E-06
   9       1.0000001263       0.126E-06      1.0000001263       0.126E-06
  10       1.0000002870       0.287E-06      1.0000002870       0.287E-06
  11       0.9999990945      -0.905E-06      0.9999990945      -0.905E-06
  12      28.9999835849      -0.566E-06     10.9999839416      -0.146E-05
  13      28.9999845115      -0.534E-06     10.9999847078      -0.139E-05
  14      28.9999886185      -0.392E-06     10.9999886134      -0.104E-05
  15      28.9999841919      -0.545E-06     10.9999842338      -0.143E-05
  16      28.9999839243      -0.554E-06     10.9999839498      -0.146E-05
  17      28.9999895910      -0.359E-06     10.9999897426      -0.932E-06
  18      28.9999876437      -0.426E-06     10.9999877097      -0.112E-05
  19      28.9999874733      -0.432E-06     10.9999878164      -0.111E-05
  20      28.9999936545      -0.219E-06     10.9999934123      -0.599E-06
  21      28.9999880330      -0.413E-06     10.9999881993      -0.107E-05
  22      28.9999798605      -0.694E-06     10.9999801349      -0.181E-05
  23      28.9999879945      -0.414E-06     10.9999880134      -0.109E-05
  24      28.9999875890      -0.428E-06     10.9999902232      -0.889E-06
  25      28.9999868285      -0.454E-06     10.9999888260      -0.102E-05
  26      28.9999872710      -0.439E-06     10.9999891832      -0.983E-06
  27      29.0000026038       0.898E-07     11.0000024421       0.222E-06
  28      29.0000014408       0.497E-07     11.0000015731       0.143E-06
  29      29.0000025437       0.877E-07     11.0000052532       0.478E-06
  30      28.9999884821      -0.397E-06     10.9999906152      -0.853E-06
  31      28.9999830374      -0.585E-06     10.9999847066      -0.139E-05
  32      28.9999902109      -0.338E-06     10.9999922510      -0.704E-06
  33      28.9999949488      -0.174E-06     10.9999954027      -0.418E-06
  34      28.9999859719      -0.484E-06     10.9999883532      -0.106E-05
  35      28.9999866372      -0.461E-06     10.9999891126      -0.990E-06
  36      29.0000020918       0.721E-07     11.0000046651       0.424E-06
  37      28.9999968137      -0.110E-06     10.9999992414      -0.690E-07
  38      28.9999924502      -0.260E-06     10.9999921800      -0.711E-06
  39      28.9999663419      -0.116E-05     10.9999660331      -0.309E-05
  40      28.9999608564      -0.135E-05     10.9999633528      -0.333E-05
  41      28.9999895700      -0.360E-06     10.9999880936      -0.108E-05
  42      28.9999851277      -0.513E-06     10.9999851350      -0.135E-05
  43      28.9999840975      -0.548E-06     10.9999847677      -0.138E-05
  44      28.9999866831      -0.459E-06     10.9999868256      -0.120E-05
  45      29.0000000535       0.185E-08     10.9999998275      -0.157E-07
  46      28.9999681425      -0.110E-05     10.9999622023      -0.344E-05
  47      28.9999937278      -0.216E-06     10.9999934679      -0.594E-06

 Norms of functions from routine baspnt
 Maximum error in norms     4.408E-05 for function      509
 Minimum accuracy required  1.000E-03

 Norms of functions from routine corpnt
 Maximum error in norms     1.953E-06 for function        6
 Minimum accuracy required  1.000E-03

 Sparseness info - valence
   nr. of functions             859
   max. nr. of functions        774
   min. nr. of functions        155
   avr. nr. of functions        663
   percentage stored           77.2
 

 Sparseness info - core
   nr. of functions             330
   max. nr. of functions        189
   min. nr. of functions          0
   avr. nr. of functions         88
   percentage stored           26.7
 

 Frozen core overlap error  2.64E-03
 PrepareHam: needLdotB F

 FunctionSetTransformOption:     2
   Cut off:   1.00E-10




 ========================
 Density Fitting (zlmFit)
 ========================
  
 ZlmFit Fit Quality: GOOD           
  
 Max L-expansion:                        min:   7 max:   8
 Nr. of radial interpolation points:     min:  72 max: 120
 BeckeGrid: periodic partition function using cells up to order            5
 skipDiagonalization F parmix=  0.200000000000000      ncylx=         300
 restartSCF F
 forceRestartSolution F



                                          *******************************
                                          *  S C F   P R O C E D U R E  *
                                          *******************************
  

 Nr. of basis functions                  859
 Nr. of core functions                   330
 Nr. of fit functions                      0
 Nr. of symmetry unique K-points           1
 Valence charge                          425.00

 Settings for convergence
 --------------------------------------------------------------------------------
   Initial density:          psi
   start. from max. spin     T
 --------------------------------------------------------------------------------

 cyc=  0 err=0.00E+00 cpu= 294s ela= 320s
 Final bond energy (PBE)                                      -7.27352796    -197.9228    -4564.21
 
 Fit error correction used (Vdef*err)                          0.00022421       0.0061        0.14

 ==================================================================================================
 cycle            1  energy (eV)   -197.922766066563       from kin
  -8.77352261682862     
 cyc=  1 err=1.28E+00 meth=m nvec= 1 mix=1.0000 cpu= 115s ela= 123s fit=1.11E-02
  E=    -197.92 (eV)
 cyc=  2 err=2.63E-01 meth=m nvec= 1 mix=0.2200 cpu= 125s ela= 132s fit=1.11E-02
 cyc=  3 err=1.26E+00 meth=d nvec= 2 mix=0.2000 cpu= 130s ela= 138s fit=1.11E-02
 RHOPOT WARNING: NEGATIVE CHARGE DENSITY FOUND OF  -6.20E-06 FOR SPIN  1
 RHOPOT WARNING: NEGATIVE CHARGE DENSITY FOUND OF  -3.41E-06 FOR SPIN  2
 cyc=  4 err=5.34E-01 meth=d nvec= 3 mix=0.2000 cpu= 112s ela= 118s fit=1.11E-02
 RHOPOT WARNING: NEGATIVE CHARGE DENSITY FOUND OF  -1.85E-05 FOR SPIN  1
 RHOPOT WARNING: NEGATIVE CHARGE DENSITY FOUND OF  -1.19E-05 FOR SPIN  2
 cyc=  5 err=2.03E-01 meth=d nvec= 4 mix=0.2000 cpu= 111s ela= 117s fit=1.10E-02
 RHOPOT WARNING: NEGATIVE CHARGE DENSITY FOUND OF  -1.91E-05 FOR SPIN  1
 RHOPOT WARNING: NEGATIVE CHARGE DENSITY FOUND OF  -1.20E-05 FOR SPIN  2
 cyc=  6 err=1.20E-01 meth=d nvec= 5 mix=0.2000 cpu= 116s ela= 124s fit=1.10E-02
 RHOPOT WARNING: NEGATIVE CHARGE DENSITY FOUND OF  -1.77E-05 FOR SPIN  1
 RHOPOT WARNING: NEGATIVE CHARGE DENSITY FOUND OF  -1.04E-05 FOR SPIN  2
 cyc=  7 err=9.72E-02 meth=d nvec= 6 mix=0.2000 cpu= 124s ela= 133s fit=1.10E-02
 RHOPOT WARNING: NEGATIVE CHARGE DENSITY FOUND OF  -7.63E-06 FOR SPIN  1
 RHOPOT WARNING: NEGATIVE CHARGE DENSITY FOUND OF  -3.69E-06 FOR SPIN  2
 cyc=  8 err=9.20E-02 meth=d nvec= 7 mix=0.2000 cpu= 103s ela= 110s fit=1.10E-02
 cyc=  9 err=4.52E-02 meth=d nvec= 8 mix=0.2000 cpu=  97s ela= 104s fit=1.10E-02
 cyc= 10 err=3.07E-02 meth=d nvec= 9 mix=0.2000 cpu= 101s ela= 105s fit=1.10E-02
 cyc= 11 err=2.53E-02 meth=d nvec=10 mix=0.2000 cpu= 104s ela= 110s fit=1.10E-02
 cyc= 12 err=1.74E-02 meth=d nvec=11 mix=0.2200 cpu= 139s ela= 147s fit=1.10E-02
 cyc= 13 err=1.41E-02 meth=d nvec=12 mix=0.2420 cpu= 109s ela= 115s fit=1.10E-02
 cyc= 14 err=1.03E-02 meth=d nvec=13 mix=0.2662 cpu= 103s ela= 109s fit=1.10E-02
 cyc= 15 err=9.05E-03 meth=d nvec=13 mix=0.2928 cpu= 110s ela= 118s fit=1.10E-02
 cyc= 16 err=7.61E-03 meth=d nvec=13 mix=0.3221 cpu= 144s ela= 153s fit=1.10E-02
 cyc= 17 err=5.55E-03 meth=d nvec=14 mix=0.3325 cpu= 109s ela= 115s fit=1.10E-02
 cyc= 18 err=4.40E-03 meth=d nvec=15 mix=0.3055 cpu= 121s ela= 128s fit=1.10E-02
 cyc= 19 err=3.81E-03 meth=d nvec=15 mix=0.3055 cpu= 123s ela= 131s fit=1.10E-02
 cyc= 20 err=1.81E-03 meth=d nvec=16 mix=0.2807 cpu= 104s ela= 111s fit=1.10E-02
 cyc= 21 err=1.62E-03 meth=d nvec=17 mix=0.2579 cpu= 100s ela= 106s fit=1.10E-02
 cyc= 22 err=1.57E-03 meth=d nvec=15 mix=0.2837 cpu= 110s ela= 117s fit=1.10E-02
 cyc= 23 err=1.51E-03 meth=d nvec=16 mix=0.2807 cpu= 135s ela= 143s fit=1.10E-02
 cyc= 24 err=1.52E-03 meth=d nvec=16 mix=0.2807 cpu= 114s ela= 121s fit=1.10E-02
 cyc= 25 err=1.50E-03 meth=d nvec=16 mix=0.2807 cpu= 106s ela= 112s fit=1.10E-02
 cyc= 26 err=1.49E-03 meth=d nvec=16 mix=0.2807 cpu= 103s ela= 108s fit=1.10E-02
 cyc= 27 err=1.49E-03 meth=d nvec=10 mix=0.2807 cpu= 139s ela= 148s fit=1.10E-02
 cyc= 28 err=1.49E-03 meth=d nvec= 8 mix=0.3087 cpu= 108s ela= 114s fit=1.10E-02
 cyc= 29 err=1.49E-03 meth=d nvec= 8 mix=0.3087 cpu= 104s ela= 110s fit=1.10E-02
 cyc= 30 err=1.56E-03 meth=d nvec= 7 mix=0.3087 cpu= 115s ela= 122s fit=1.10E-02
 cyc= 31 err=1.60E-03 meth=d nvec= 8 mix=0.2807 cpu= 136s ela= 145s fit=1.10E-02
 cyc= 32 err=1.55E-03 meth=d nvec= 9 mix=0.2807 cpu= 107s ela= 113s fit=1.10E-02
 cyc= 33 err=1.95E-03 meth=d nvec=10 mix=0.2551 cpu= 126s ela= 133s fit=1.10E-02
 cyc= 34 err=1.92E-03 meth=d nvec=10 mix=0.2551 cpu= 128s ela= 136s fit=1.10E-02
 cyc= 35 err=1.66E-03 meth=d nvec=10 mix=0.2551 cpu= 105s ela= 111s fit=1.10E-02
 cyc= 36 err=1.75E-03 meth=d nvec=11 mix=0.2320 cpu= 112s ela= 118s fit=1.10E-02
 cyc= 37 err=1.71E-03 meth=d nvec=12 mix=0.2551 cpu= 143s ela= 153s fit=1.10E-02
 cyc= 38 err=1.79E-03 meth=d nvec=10 mix=0.2551 cpu= 113s ela= 119s fit=1.10E-02
 cyc= 39 err=2.07E-03 meth=d nvec=10 mix=0.2551 cpu= 102s ela= 108s fit=1.10E-02
 cyc= 40 err=1.74E-03 meth=d nvec=10 mix=0.2551 cpu= 135s ela= 144s fit=1.10E-02
 cyc= 41 err=2.12E-03 meth=d nvec=11 mix=0.2320 cpu= 108s ela= 115s fit=1.10E-02
 cyc= 42 err=3.37E-03 meth=d nvec=12 mix=0.2109 cpu= 103s ela= 111s fit=1.10E-02
 cyc= 43 err=4.96E-03 meth=d nvec=13 mix=0.1917 cpu= 109s ela= 116s fit=1.10E-02
 cyc= 44 err=2.10E-03 meth=d nvec=14 mix=0.1917 cpu= 135s ela= 144s fit=1.10E-02
 cyc= 45 err=2.03E-03 meth=d nvec=15 mix=0.1917 cpu= 106s ela= 113s fit=1.10E-02
 cyc= 46 err=1.38E-03 meth=d nvec=16 mix=0.2109 cpu=  99s ela= 105s fit=1.10E-02
 cyc= 47 err=1.22E-03 meth=d nvec=17 mix=0.2320 cpu= 131s ela= 141s fit=1.10E-02
 cyc= 48 err=1.87E-03 meth=d nvec=18 mix=0.2109 cpu= 110s ela= 116s fit=1.10E-02
 cyc= 49 err=1.82E-03 meth=d nvec=19 mix=0.2177 cpu= 107s ela= 112s fit=1.10E-02
 cyc= 50 err=1.86E-03 meth=d nvec=20 mix=0.1979 cpu= 109s ela= 115s fit=1.10E-02
 cyc= 51 err=1.75E-03 meth=d nvec=20 mix=0.2000 cpu= 128s ela= 137s fit=1.10E-02
 cyc= 52 err=2.24E-03 meth=d nvec=20 mix=0.1818 cpu= 131s ela= 139s fit=1.10E-02
 cyc= 53 err=1.30E-03 meth=d nvec=20 mix=0.2000 cpu= 105s ela= 111s fit=1.10E-02
 cyc= 54 err=9.67E-04 meth=d nvec=20 mix=0.2000 cpu= 112s ela= 118s fit=1.10E-02
 cyc= 55 err=6.03E-04 meth=d nvec=20 mix=0.2000 cpu= 128s ela= 136s fit=1.10E-02
 cyc= 56 err=4.39E-04 meth=d nvec=20 mix=0.2000 cpu= 107s ela= 113s fit=1.10E-02
 cyc= 57 err=2.20E-04 meth=d nvec=20 mix=0.2000 cpu= 101s ela= 106s fit=1.10E-02
 cyc= 58 err=1.21E-04 meth=d nvec=19 mix=0.2177 cpu= 108s ela= 116s fit=1.10E-02
 cyc= 59 err=4.19E-05 meth=d nvec=20 mix=0.2000 cpu= 131s ela= 139s fit=1.10E-02
 cyc= 60 err=1.29E-04 meth=d nvec=15 mix=0.2000 cpu= 119s ela= 127s fit=1.10E-02
 cyc= 61 err=6.19E-05 meth=d nvec=16 mix=0.2200 cpu= 103s ela= 109s fit=1.10E-02
 cyc= 62 err=3.17E-05 meth=d nvec=15 mix=0.2200 cpu= 104s ela= 110s fit=1.10E-02
 cyc= 63 err=1.07E-05 meth=d nvec=12 mix=0.2420 cpu= 140s ela= 150s fit=1.10E-02
 cyc= 64 err=1.01E-05 meth=d nvec=13 mix=0.2662 cpu= 115s ela= 122s fit=1.10E-02
 cyc= 65 err=1.04E-05 meth=d nvec=13 mix=0.2662 cpu= 102s ela= 107s fit=1.10E-02
 cyc= 66 err=5.68E-06 meth=d nvec=13 mix=0.2928 cpu= 108s ela= 115s fit=1.10E-02
 cyc= 67 err=2.59E-06 meth=d nvec=13 mix=0.2928 cpu= 133s ela= 141s fit=1.10E-02
 cyc= 68 err=1.87E-06 meth=d nvec=14 mix=0.3221 cpu= 114s ela= 121s fit=1.10E-02
 cyc= 69 err=1.27E-06 meth=d nvec=13 mix=0.3543 cpu= 103s ela= 109s fit=1.10E-02
 cyc= 70 err=1.31E-06 meth=d nvec=14 mix=0.3221 cpu= 100s ela= 105s fit=1.10E-02

 CONVERGENCE REACHED
 cyc= 71 err=6.80E-07 meth=d nvec=14 mix=0.3325 cpu= 119s ela= 126s fit=1.10E-02


         -------------------- CYCLE   72 --------------------
 Self consistent error (density)                       6.80E-07
 -0.948912803347709      -0.366977577625033      -0.236940479596084     
 -0.158489207086981      -0.134419932108201      -0.125488755951667     
 -8.346611982532284E-002 -5.684667650216528E-002 -5.152457066190029E-002
 -4.494431435021075E-002 -4.388422040715069E-002 -4.288265334525637E-002
 -3.348354884962697E-002 -3.185766460687525E-002 -3.148749464656649E-002
 -2.850677157590483E-002 -2.721981296952237E-002 -2.614339682848924E-002
 -2.324443833660264E-002 -2.253831773960375E-002 -1.983623080176248E-002
 -1.749027583647792E-002 -1.553671189796906E-002 -1.511526805363549E-002
 -1.365962241725078E-002 -1.303458454299025E-002 -1.276089252405296E-002
 -1.250245066260963E-002 -1.172258694192366E-002 -1.096902842663654E-002
 -1.067416165150112E-002 -1.029217450971991E-002 -9.946118524622878E-003
 -9.599362241018207E-003 -9.252972759806148E-003 -8.962562492759379E-003
 -8.649976730713190E-003 -8.358741815600713E-003 -8.007814953196317E-003
 -7.664874786019881E-003 -7.438819329519530E-003 -7.206036369380987E-003
 -6.766576083513211E-003 -6.697846728004065E-003 -6.506105751209672E-003
 -6.230249053913877E-003 -6.076653772603121E-003 -5.916805849929656E-003
 -5.460512729161102E-003 -5.405916223015089E-003 -5.117552251152483E-003
 -4.987261772612839E-003 -4.934780961351719E-003 -4.688193457901111E-003
 -4.527831279315938E-003 -4.483609403735396E-003 -4.358886010355899E-003
 -4.315928499831614E-003 -4.225936930659055E-003 -4.066283976907678E-003
 -3.990252665088698E-003 -3.887559268257609E-003 -3.866521659546917E-003
 -3.801656778314184E-003 -3.739358782407911E-003 -3.577022560078966E-003
 -3.490470763279598E-003 -3.410891062686111E-003 -3.309007966472043E-003
 -3.154834458250630E-003 -3.149531975109819E-003 -2.993507114325478E-003
 -2.978802433331504E-003 -2.869152028709563E-003 -2.838963562480176E-003
 -2.805209554906078E-003 -2.730514034932597E-003 -2.656479664755665E-003
 -2.594202229314244E-003 -2.558014587352631E-003 -2.506053317008116E-003
 -2.470495098828235E-003 -2.457908872019663E-003 -2.342929678721586E-003
 -2.337132139659333E-003 -2.294507544684535E-003 -2.264719746806097E-003
 -2.241265097141437E-003 -2.202943966993933E-003 -2.145367335632249E-003
 -2.105755282033909E-003 -2.095680196909990E-003 -2.039525842262886E-003
 -2.021901905924842E-003 -1.998890631968876E-003 -1.975133128030814E-003
 -1.944206698939273E-003 -1.908523770609431E-003 -1.890644425321694E-003
 -1.826984935352504E-003 -1.804072333783119E-003 -1.752823481574576E-003
 -1.737784296275714E-003 -1.721245741742203E-003 -1.706755148667143E-003
 -1.686181184029498E-003 -1.666672839341229E-003 -1.620734499230562E-003
 -1.585804183023638E-003 -1.580343165241756E-003 -1.544839166729782E-003
 -1.528933949535353E-003 -1.513244327496888E-003 -1.477191713777271E-003
 -1.447480575113221E-003 -1.442088978839559E-003 -1.421898887424722E-003
 -1.415685451095785E-003 -1.369012814971640E-003 -1.353452018415257E-003
 -1.325947801934100E-003 -1.320790370334003E-003 -1.308817836928692E-003
 -1.287436710735058E-003 -1.274842885234110E-003 -1.265444187860571E-003
 -1.252868355705854E-003 -1.221425078590151E-003 -1.203639609778600E-003
 -1.182590859424403E-003 -1.170851686065914E-003 -1.155350513676866E-003
 -1.147126372464485E-003 -1.114725288902354E-003 -1.095105560849985E-003
 -1.070859927286241E-003 -1.045006066269252E-003 -1.025604473026376E-003
 -1.018544559683117E-003 -1.014717212134772E-003 -1.000317789757445E-003
 -9.871172834616700E-004 -9.782746272519105E-004 -9.688567377259623E-004
 -9.580495373811383E-004 -9.477403281352899E-004 -9.110027803025759E-004
 -9.065459080033763E-004 -8.960759203639839E-004 -8.924898409985755E-004
 -8.664039113551006E-004 -8.535266139075155E-004 -8.317218997861472E-004
 -8.257736564105350E-004 -8.256552996967301E-004 -8.125515825485880E-004
 -8.024626624990676E-004 -7.876206441157818E-004 -7.814315963640366E-004
 -7.590225435306810E-004 -7.495809424801990E-004 -7.377831269742300E-004
 -7.240159919846537E-004 -7.126442530386245E-004 -6.981500948293297E-004
 -6.955987764994993E-004 -6.852855105693999E-004 -6.825823234942681E-004
 -6.747620284634679E-004 -6.496723727892080E-004 -6.455745167726841E-004
 -6.328660870888531E-004 -6.198103837353065E-004 -6.086029227728788E-004
 -6.031927780824354E-004 -5.927665392969362E-004 -5.907382061688092E-004
 -5.772195601429368E-004 -5.740811839904876E-004 -5.651551050529071E-004
 -5.525766490364286E-004 -5.493757962450476E-004 -5.321490567464079E-004
 -5.271290124590175E-004 -5.161167693177962E-004 -4.990526575007643E-004
 -4.969294207671992E-004 -4.846805957915481E-004 -4.723702549550554E-004
 -4.591062875956295E-004 -4.537403263479146E-004 -4.457325529709318E-004
 -4.332083591496549E-004 -4.294586425896506E-004 -4.230558571941658E-004
 -4.167874075113281E-004 -4.102684666288377E-004 -4.039652364362267E-004
 -3.960791080345289E-004 -3.800369978589311E-004 -3.725400014239361E-004
 -3.649917433795160E-004 -3.499563147375665E-004 -3.406300397174637E-004
 -3.336323567538438E-004 -3.067845984795693E-004 -3.023540836982678E-004
 -2.919908366857885E-004 -2.897045553936846E-004 -2.801756015327609E-004
 -2.717443036306432E-004 -2.460573593332383E-004 -1.898603680805944E-004
 -6.272122563358866E-016 -3.043296175140689E-016 -1.843112374258922E-016
 -1.127620757943110E-016 -1.081419649464979E-016 -8.627915180055348E-017
 -8.321032823557838E-017 -8.243663669752246E-017 -8.118225364774653E-017
 -7.893485171273724E-017 -7.600064685331795E-017 -7.504396647086266E-017
 -7.368514241541547E-017 -7.105836995906161E-017 -7.055045986480190E-017
 -6.950763630423496E-017 -6.824455945045029E-017 -6.822294321472616E-017
 -6.820331791103136E-017 -6.761354745102968E-017 -6.368727539141656E-017
 -6.358435069360876E-017 -6.342048047014084E-017 -6.263695544659016E-017
 -6.231418301878270E-017 -6.228876026648161E-017 -6.068787273491360E-017
 -6.035367899016602E-017 -5.940694339192356E-017 -5.927193311698008E-017
 -5.893619270209004E-017 -5.848954888317778E-017 -5.755183063290189E-017
 -5.727647006557820E-017 -5.722534284083426E-017 -5.711834197665500E-017
 -5.708455884781078E-017 -5.609637530552489E-017 -5.603046228899218E-017
 -5.505275646143143E-017 -5.479556556335389E-017 -5.425571696097677E-017
 -5.287063230304221E-017 -5.253617657464710E-017 -5.248691094709462E-017
 -5.237611094175671E-017 -5.147468954397438E-017 -5.040449072389401E-017
 -4.933827677631365E-017 -4.924734302202613E-017 -4.857351899360694E-017
 -4.848712462006156E-017 -4.848579591970683E-017 -4.825968843432807E-017
 -4.679058075582777E-017 -4.613032316301597E-017 -4.487649537448936E-017
 -4.461156356025963E-017 -4.412478445681206E-017 -4.286386500458600E-017
 -4.279299256629012E-017 -4.244422576252805E-017 -4.205391761323717E-017
 -4.056585581724791E-017 -4.006503328192979E-017 -3.998439999436788E-017
 -3.973418356164748E-017 -3.860259288347101E-017 -3.755702075098409E-017
 -3.722558254901727E-017 -3.662357274608420E-017 -3.649307249917521E-017
 -3.466494467422744E-017 -3.381790347020552E-017 -3.354125905578512E-017
 -3.350806799229745E-017 -3.242605222995799E-017 -3.149289462838150E-017
 -3.101821004464080E-017 -3.026744993711933E-017 -2.968521465853629E-017
 -2.784095816487749E-017 -2.699514836817269E-017 -2.640489183035316E-017
 -2.540011981076903E-017 -2.509822827111905E-017 -2.371938642413319E-017
 -2.223473948491724E-017 -2.200454785555954E-017 -2.163931857285025E-017
 -2.059031649055770E-017 -1.902362455560113E-017 -1.854284154127142E-017
 -1.838451278457521E-017 -1.761252879135508E-017 -1.745664046661958E-017
 -1.660873012922181E-017 -1.652803945331562E-017 -1.645511486373944E-017
 -1.556992051661302E-017 -1.538468825061834E-017 -1.525757273746499E-017
 -1.522868945125091E-017 -1.513200591654768E-017 -1.491176342289004E-017
 -1.460813372279395E-017 -1.430308900489218E-017 -1.411477984333918E-017
 -1.406686200311244E-017 -1.320975950123075E-017 -1.318836650387808E-017
 -1.313973152349182E-017 -1.306818928455794E-017 -1.292868556689130E-017
 -1.247457582759248E-017 -1.242577484399156E-017 -1.240450355449871E-017
 -1.224573032545803E-017 -1.218530375703255E-017 -1.208599916587172E-017
 -1.203804999514712E-017 -1.193909113450633E-017 -1.180235631147515E-017
 -1.172363351029817E-017 -1.168474359200534E-017 -1.157277466984190E-017
 -1.116040717146171E-017 -1.108096280075754E-017 -1.099226062438097E-017
 -1.093648336491714E-017 -1.091725915513905E-017 -1.057073747439905E-017
 -1.043260908698942E-017 -1.037259339337631E-017 -1.023537579098809E-017
 -1.006690978710988E-017 -1.001461690424639E-017 -9.770999406099259E-018
 -9.549948102240290E-018 -9.547141361616847E-018 -9.499187950444560E-018
 -9.417193751204335E-018 -9.412986760304904E-018 -9.384923197664587E-018
 -9.354613130197384E-018 -9.235590763948041E-018 -9.205993304536376E-018
 -9.164978256153596E-018 -8.699469165903772E-018 -8.541909085028434E-018
 -8.501533012018588E-018 -8.423736484445828E-018 -8.342784717138619E-018
 -8.288626871098530E-018 -8.077664848463740E-018 -8.059270627691600E-018
 -7.826183631095790E-018 -7.639489798735919E-018 -7.631507409932427E-018
 -7.461343981633006E-018 -7.442661463377250E-018 -7.157291577417811E-018
 -7.016834558294054E-018 -6.859030943095957E-018 -6.820420006996406E-018
 -6.759990547145350E-018 -6.707206181713961E-018 -6.606768567148087E-018
 -6.535145609747497E-018 -6.318869450409707E-018 -6.082971040251310E-018
 -6.005389783770227E-018 -5.867689085091018E-018 -5.670946919273103E-018
 -5.594911111013553E-018 -5.443627789059013E-018 -5.170255700392166E-018
 -5.025273020054654E-018 -4.995834817811211E-018 -4.994088218252684E-018
 -4.901775329259331E-018 -4.892651812169169E-018 -4.720357038011308E-018
 -4.294498237978232E-018 -4.091184561104266E-018 -4.000389358827204E-018
 -3.977593073755203E-018 -3.920432201922240E-018 -3.909894863294292E-018
 -3.736273441519799E-018 -3.565245631120660E-018 -3.483188889894308E-018
 -3.170457337678609E-018 -3.121273800754108E-018 -3.029758513977520E-018
 -2.669613838642316E-018 -2.665793491284902E-018 -2.433627521187529E-018
 -2.228925944467674E-018 -2.052123486093695E-018 -2.032548692622501E-018
 -1.923626149320007E-018 -1.717287913944737E-018 -1.609518721565169E-018
 -1.569850802606371E-018 -1.551835327242038E-018 -1.287771530642824E-018
 -1.252084306067284E-018 -1.090906988788170E-018 -1.088857817332928E-018
 -6.931012092006000E-019 -5.961963400444210E-019 -5.820733399302871E-019
 -2.551751027624865E-019 -2.182404944661390E-019 -1.842990912336453E-019
 -1.774716546530403E-019 -1.416471795469699E-019 -3.329759727722655E-020
  5.809719163756222E-020  1.844313636919157E-019  2.839029685411322E-019
  3.981233391870394E-019  4.840991114331270E-019  5.584726575811854E-019
  5.669967410701220E-019  6.215894497889793E-019  6.445539511419519E-019
  9.124049204388309E-019  1.105806270179435E-018  1.180943718714157E-018
  1.424093564783214E-018  1.631662996297106E-018  1.640102202980687E-018
  1.686471130778866E-018  1.879025875285907E-018  2.186342647303295E-018
  2.205663095023318E-018  2.224270698587474E-018  2.226319401172530E-018
  2.325772378431948E-018  2.361665715027665E-018  2.656103190185599E-018
  2.668529884172417E-018  3.257372088857467E-018  3.259570329493051E-018
  3.277184608473637E-018  3.656329272792102E-018  3.767255864159556E-018
  3.883685677089762E-018  3.906184789371841E-018  4.166371767106040E-018
  4.322948964378893E-018  4.360939656008637E-018  4.612275984827525E-018
  4.733482403712431E-018  4.972339056259133E-018  4.995494411666610E-018
  5.219424825292908E-018  5.273327659271011E-018  5.277553713485687E-018
  5.339209334444071E-018  5.343563671070353E-018  5.383795542091386E-018
  5.739169679046972E-018  5.796525164810174E-018  5.847076723577429E-018
  6.103278544750974E-018  6.253826599942738E-018  6.308010698326183E-018
  6.533198390311873E-018  6.582123606444294E-018  6.625366062386756E-018
  6.677311370334240E-018  7.094441212048172E-018  7.108607294590419E-018
  7.116069262795404E-018  7.217881992699485E-018  7.225245334288838E-018
  7.365742890774732E-018  7.661576862674591E-018  7.728782103448952E-018
  7.817932358523563E-018  7.945898194983176E-018  7.973671201145094E-018
  8.078561498908337E-018  8.158635183033357E-018  8.503866350666296E-018
  9.003087125926097E-018  9.097425589125365E-018  9.329164199089360E-018
  9.380601272429820E-018  9.531097086349782E-018  9.555054297386894E-018
  9.619800689129620E-018  9.636290409795599E-018  9.653080506268809E-018
  9.789306407492360E-018  9.835074325058850E-018  9.838013421954279E-018
  9.955138882369524E-018  1.003606780047580E-017  1.009234195703285E-017
  1.009684320561478E-017  1.028192098915776E-017  1.038917958767786E-017
  1.052978869533784E-017  1.054832708613318E-017  1.058550971374688E-017
  1.085650487139826E-017  1.088342422114049E-017  1.124050926085370E-017
  1.144017205554930E-017  1.149679351257942E-017  1.181073828082256E-017
  1.201576416840274E-017  1.208438273906128E-017  1.214846979668920E-017
  1.229113775788877E-017  1.262940090298272E-017  1.275480375632277E-017
  1.277608618062363E-017  1.295786618548798E-017  1.308032744507353E-017
  1.314385394653285E-017  1.346124737137598E-017  1.372096412922631E-017
  1.407182491260667E-017  1.411330834122006E-017  1.412205092380196E-017
  1.416008754587225E-017  1.441157230116970E-017  1.485496521593640E-017
  1.507122577950732E-017  1.512981597293398E-017  1.577642880479197E-017
  1.617046374599543E-017  1.709352367350625E-017  1.761662168600068E-017
  1.772122435669761E-017  1.827650358843491E-017  1.847621234501763E-017
  1.857770187791153E-017  1.895756160090137E-017  2.178955475319927E-017
  2.203598275119342E-017  2.206700496881769E-017  2.213766470825301E-017
  2.243566857859089E-017  2.344851493530180E-017  2.517961270590049E-017
  2.653117249338027E-017  2.667852056340997E-017  2.668854237554404E-017
  2.815792563924101E-017  3.011366793097478E-017  3.071195194585132E-017
  3.081124872343325E-017  3.181217482799482E-017  3.261912172840382E-017
  3.409581020849256E-017  3.438315309808441E-017  3.450752945072361E-017
  3.472760421129730E-017  3.687505226449130E-017  3.736206503434588E-017
  3.764992649303178E-017  3.846485373800246E-017  3.865454148945770E-017
  3.960059213220474E-017  4.002862526430414E-017  4.183533430342610E-017
  4.216278925363946E-017  4.226444205242679E-017  4.237701974072650E-017
  4.502639551798755E-017  4.513467851384168E-017  4.533428532712361E-017
  4.559658201040286E-017  4.754013794774750E-017  4.770339058677190E-017
  4.803928117437367E-017  4.902432680518294E-017  5.037597637256501E-017
  5.049353785394699E-017  5.052582421429335E-017  5.097389669404267E-017
  5.226359958750608E-017  5.232080420997850E-017  5.297590673352847E-017
  5.324564556897343E-017  5.331135285408520E-017  5.338888534097360E-017
  5.402905812640662E-017  5.444552157936009E-017  5.594744811654009E-017
  5.622537817223640E-017  5.665946933096543E-017  5.700970658899985E-017
  5.726956613477668E-017  5.780357701155918E-017  5.837107921115517E-017
  5.892037148237845E-017  5.915818823479196E-017  6.034134695792420E-017
  6.100143579955305E-017  6.153729826696776E-017  6.184581500966172E-017
  6.255826730710098E-017  6.310211101135758E-017  6.335387687563818E-017
  6.345881560421814E-017  6.480457971653075E-017  6.493279750650150E-017
  6.704769966716871E-017  6.725909686026569E-017  6.854344208922019E-017
  6.915583915900287E-017  6.995837296795643E-017  7.174816941181232E-017
  7.335047705840538E-017  7.404223711028511E-017  7.512518144343516E-017
  8.090069037487887E-017  8.196435508595731E-017  8.363794992375741E-017
  8.380939921939479E-017  9.073115342950009E-017  1.104640953505575E-016
  1.696806592508057E-016  1.928597242707097E-016  2.358116290808258E-016
  4.819700835343553E-016  1.898603680874664E-004  2.460573593360147E-004
  2.717443036339348E-004  2.801756015322183E-004  2.897045553941267E-004
  2.919908366844835E-004  3.023540836982104E-004  3.067845984750774E-004
  3.336323567531623E-004  3.406300397175481E-004  3.499563147400945E-004
  3.649917433816288E-004  3.725400014242716E-004  3.800369978538394E-004
  3.960791080331673E-004  4.039652364364401E-004  4.102684666310674E-004
  4.167874075125877E-004  4.230558571950460E-004  4.294586425864226E-004
  4.332083591555527E-004  4.457325529675270E-004  4.537403263466543E-004
  4.591062875932803E-004  4.723702549531672E-004  4.846805957971239E-004
  4.969294207688225E-004  4.990526574976900E-004  5.161167693131653E-004
  5.271290124591997E-004  5.321490567424324E-004  5.493757962425439E-004
  5.525766490348169E-004  5.651551050541435E-004  5.740811839896492E-004
  5.772195601458812E-004  5.907382061696435E-004  5.927665392926745E-004
  6.031927780816516E-004  6.086029227704433E-004  6.198103837362821E-004
  6.328660870804672E-004  6.455745167752254E-004  6.496723727887648E-004
  6.747620284589632E-004  6.825823234905598E-004  6.852855105712080E-004
  6.955987764988713E-004  6.981500948274790E-004  7.126442530352105E-004
  7.240159919781987E-004  7.377831269685187E-004  7.495809424774375E-004
  7.590225435280340E-004  7.814315963648261E-004  7.876206441194757E-004
  8.024626625067568E-004  8.125515825438853E-004  8.256552996939546E-004
  8.257736564100237E-004  8.317218997848238E-004  8.535266139114427E-004
  8.664039113585754E-004  8.924898409953077E-004  8.960759203604272E-004
  9.065459079982548E-004  9.110027803008124E-004  9.477403281350937E-004
  9.580495373824164E-004  9.688567377287733E-004  9.782746272515501E-004
  9.871172834570716E-004  1.000317789754219E-003  1.014717212135328E-003
  1.018544559681152E-003  1.025604473023269E-003  1.045006066262798E-003
  1.070859927279028E-003  1.095105560853923E-003  1.114725288902111E-003
  1.147126372463726E-003  1.155350513676695E-003  1.170851686064886E-003
  1.182590859426023E-003  1.203639609779448E-003  1.221425078589763E-003
  1.252868355702820E-003  1.265444187856066E-003  1.274842885227058E-003
  1.287436710729778E-003  1.308817836925170E-003  1.320790370335414E-003
  1.325947801932757E-003  1.353452018414451E-003  1.369012814966345E-003
  1.415685451094199E-003  1.421898887420714E-003  1.442088978829906E-003
  1.447480575109658E-003  1.477191713770699E-003  1.513244327493547E-003
  1.528933949534868E-003  1.544839166732352E-003  1.580343165234134E-003
  1.585804183027682E-003  1.620734499229105E-003  1.666672839337855E-003
  1.686181184028662E-003  1.706755148661194E-003  1.721245741743986E-003
  1.737784296274499E-003  1.752823481568812E-003  1.804072333784563E-003
  1.826984935336573E-003  1.890644425326101E-003  1.908523770606058E-003
  1.944206698935039E-003  1.975133128031617E-003  1.998890631969497E-003
  2.021901905925017E-003  2.039525842267506E-003  2.095680196889647E-003
  2.105755282032572E-003  2.145367335620962E-003  2.202943966982382E-003
  2.241265097140491E-003  2.264719746810161E-003  2.294507544690984E-003
  2.337132139657562E-003  2.342929678723348E-003  2.457908872019687E-003
  2.470495098822091E-003  2.506053317002590E-003  2.558014587347273E-003
  2.594202229303158E-003  2.656479664753657E-003  2.730514034934859E-003
  2.805209554893771E-003  2.838963562477483E-003  2.869152028700675E-003
  2.978802433326203E-003  2.993507114324622E-003  3.149531975105509E-003
  3.154834458234940E-003  3.309007966449151E-003  3.410891062670502E-003
  3.490470763271888E-003  3.577022560088037E-003  3.739358782410273E-003
  3.801656778305050E-003  3.866521659547253E-003  3.887559268254451E-003
  3.990252665078788E-003  4.066283976901911E-003  4.225936930654995E-003
  4.315928499825707E-003  4.358886010354033E-003  4.483609403726576E-003
  4.527831279309042E-003  4.688193457871991E-003  4.934780961347603E-003
  4.987261772597993E-003  5.117552251121926E-003  5.405916223016439E-003
  5.460512729157204E-003  5.916805849881935E-003  6.076653772598716E-003
  6.230249053913390E-003  6.506105751207402E-003  6.697846728001958E-003
  6.766576083484773E-003  7.206036369379683E-003  7.438819329527373E-003
  7.664874786013872E-003  8.007814953191063E-003  8.358741815587703E-003
  8.649976730718524E-003  8.962562492759472E-003  9.252972759809986E-003
  9.599362241012812E-003  9.946118524615541E-003  1.029217450972728E-002
  1.067416165149595E-002  1.096902842662723E-002  1.172258694190784E-002
  1.250245066260176E-002  1.276089252405679E-002  1.303458454296767E-002
  1.365962241722419E-002  1.511526805362497E-002  1.553671189796573E-002
  1.749027583646589E-002  1.983623080175154E-002  2.253831773960332E-002
  2.324443833659597E-002  2.614339682848103E-002  2.721981296952704E-002
  2.850677157591138E-002  3.148749464657121E-002  3.185766460689250E-002
  3.348354884962407E-002  4.288265334526157E-002  4.388422040718748E-002
  4.494431435019860E-002  5.152457066190830E-002  5.684667650216959E-002
  8.346611982530858E-002  0.125488755951669       0.134419932108194     
  0.158489207086983       0.236940479596101       0.366977577625027     
  0.948912803347706     
 -0.871164932032672      -0.601012733540213      -0.288636933360199     
 -0.208550740860511      -0.160018081875274      -0.123073167652149     
 -0.106870950223340      -7.831012159070051E-002 -5.262775299928394E-002
 -4.972878447936301E-002 -4.658590413545103E-002 -4.004703347189376E-002
 -3.906792748501010E-002 -3.680548464306563E-002 -3.106622614374359E-002
 -2.912347239704485E-002 -2.671425885348129E-002 -2.557157751770142E-002
 -2.440252375605004E-002 -2.221160792079533E-002 -2.199959733520220E-002
 -1.977863611299086E-002 -1.736954678088655E-002 -1.644435896984290E-002
 -1.457972917175036E-002 -1.317901447949574E-002 -1.276946486404923E-002
 -1.221467129869526E-002 -1.177672397041283E-002 -1.133995581134567E-002
 -1.094480025412454E-002 -1.071150524498707E-002 -1.060274132285454E-002
 -9.502720538538081E-003 -9.323088624063792E-003 -9.022329273856065E-003
 -8.749550274186144E-003 -8.575551401398833E-003 -8.488028494180616E-003
 -7.879770167853970E-003 -7.767279332073752E-003 -7.514594840731196E-003
 -7.355618737831113E-003 -7.061396654193234E-003 -6.990641760882141E-003
 -6.252433322416146E-003 -6.032148995229856E-003 -5.744598349123519E-003
 -5.510536712668446E-003 -5.433226861224373E-003 -5.304390225861563E-003
 -5.259845612372123E-003 -5.190066308530753E-003 -4.850208670278936E-003
 -4.800383956498223E-003 -4.667585968728656E-003 -4.563895922868332E-003
 -4.435617982907999E-003 -4.327416714646160E-003 -4.182185975567621E-003
 -4.153827559790630E-003 -4.133517094057271E-003 -4.082911214699242E-003
 -3.843204222956502E-003 -3.788279142326300E-003 -3.686968472875317E-003
 -3.627670456922483E-003 -3.545363661710947E-003 -3.434212722590361E-003
 -3.363329578386460E-003 -3.283321200155154E-003 -3.255753241899596E-003
 -3.224624812943508E-003 -3.152621198398326E-003 -3.056829899611630E-003
 -3.032559754885017E-003 -2.997456457364994E-003 -2.924868198529146E-003
 -2.853937144036141E-003 -2.816527708193991E-003 -2.716441098007791E-003
 -2.679438183059064E-003 -2.589771932036676E-003 -2.521903148132731E-003
 -2.486800651261770E-003 -2.445332222484902E-003 -2.372473980599789E-003
 -2.345173123105572E-003 -2.309899594326948E-003 -2.287131397746836E-003
 -2.260411965244578E-003 -2.227159049512013E-003 -2.199689940363108E-003
 -2.101030970669074E-003 -2.088331919768820E-003 -2.050253803458549E-003
 -2.007964978446542E-003 -1.994293249572728E-003 -1.955954369164132E-003
 -1.946576750380035E-003 -1.900248275521548E-003 -1.867856376303070E-003
 -1.826314181916189E-003 -1.790530375773396E-003 -1.747539492217633E-003
 -1.702483259382401E-003 -1.692438462988666E-003 -1.637831527694834E-003
 -1.633138704905302E-003 -1.605407219947134E-003 -1.582426426748150E-003
 -1.561178222982359E-003 -1.530887590900234E-003 -1.501824986951614E-003
 -1.487439623030408E-003 -1.454620047682111E-003 -1.431975251279570E-003
 -1.416689166666771E-003 -1.405663183192852E-003 -1.385215840570525E-003
 -1.346991050708568E-003 -1.330586737506797E-003 -1.308903653095179E-003
 -1.284075274741517E-003 -1.260812992333351E-003 -1.237882331487145E-003
 -1.225314302902666E-003 -1.207299310336062E-003 -1.200137079892102E-003
 -1.181734010932032E-003 -1.143254423072183E-003 -1.117686810604250E-003
 -1.100406093747835E-003 -1.096280800731976E-003 -1.078965731513674E-003
 -1.064564502402384E-003 -1.057769415079252E-003 -1.024325838789765E-003
 -1.010937612169761E-003 -9.875169277300457E-004 -9.815576827334588E-004
 -9.543142073087143E-004 -9.407293953177279E-004 -9.235755273459330E-004
 -9.119648447720887E-004 -8.852050608708405E-004 -8.743406600588450E-004
 -8.678070080457486E-004 -8.395739053182163E-004 -8.265178754553723E-004
 -8.181376549738827E-004 -8.056406359805052E-004 -7.877802614910710E-004
 -7.825247820546252E-004 -7.607456531115372E-004 -7.498966606102141E-004
 -7.401912670295025E-004 -7.217822167570695E-004 -7.144344617348036E-004
 -7.121454871362293E-004 -6.967204058674090E-004 -6.882960479827316E-004
 -6.716679978178907E-004 -6.591339902015594E-004 -6.518573493216110E-004
 -6.371422205042940E-004 -6.333828330954125E-004 -6.174320651375544E-004
 -6.107927067501996E-004 -5.931852747117246E-004 -5.882040553276411E-004
 -5.690926160097019E-004 -5.641373066674698E-004 -5.596975050854315E-004
 -5.490718446949146E-004 -5.432894688689139E-004 -5.289597260836750E-004
 -5.209009991631059E-004 -5.064881642071796E-004 -4.979055314493669E-004
 -4.865230588248673E-004 -4.786189675401494E-004 -4.702213077828587E-004
 -4.597367923577279E-004 -4.482934267313302E-004 -4.435481828213151E-004
 -4.305823928835910E-004 -4.198750652973753E-004 -4.189535734866649E-004
 -4.047893901981985E-004 -3.982311169704311E-004 -3.827501207886692E-004
 -3.786400571430186E-004 -3.595626907392332E-004 -3.560658929711514E-004
 -3.490576699807668E-004 -3.440916485934774E-004 -3.363100001047300E-004
 -3.351520397796756E-004 -3.171724444713087E-004 -3.137157324017094E-004
 -3.019907201905136E-004 -2.829000409708223E-004 -2.760565737803296E-004
 -2.624036634984074E-004 -2.600207632247858E-004 -2.473027060463537E-004
 -2.425434369616137E-004 -2.173127311585165E-004 -2.096766407967388E-004
 -2.064551149086492E-004 -1.972096731503345E-004 -3.149162507955116E-016
 -2.475860233684317E-016 -1.826881482704275E-016 -1.263005053147423E-016
 -1.082301783396696E-016 -1.039510378028442E-016 -1.032709163638849E-016
 -1.009557107814435E-016 -9.308310845825376E-017 -9.207364915479588E-017
 -8.959132437241399E-017 -8.256557351231839E-017 -8.097959225407879E-017
 -7.874849711479426E-017 -7.734221186367609E-017 -7.690403325784879E-017
 -7.587080401626164E-017 -7.481341859996650E-017 -7.408443746359449E-017
 -7.374816227658359E-017 -7.266755620443998E-017 -7.266084437974009E-017
 -7.253625188537909E-017 -7.203430054257269E-017 -7.083038661436995E-017
 -7.026780633476309E-017 -6.885592281442083E-017 -6.770245996428299E-017
 -6.679074029490884E-017 -6.604603709266942E-017 -6.487878933775651E-017
 -6.430446411365411E-017 -6.408421880034200E-017 -6.348581782830398E-017
 -6.332124981964926E-017 -6.080279746966334E-017 -6.015051870110402E-017
 -5.824950231739369E-017 -5.701822103690640E-017 -5.685715119405668E-017
 -5.549101420648539E-017 -5.526668975165136E-017 -5.497784016762720E-017
 -5.205629618735494E-017 -5.197328764373580E-017 -5.093682989675180E-017
 -4.886366174202481E-017 -4.877785392531406E-017 -4.750582631503741E-017
 -4.695326587989687E-017 -4.678023519519073E-017 -4.544296556547653E-017
 -4.527205043881811E-017 -4.516389337942507E-017 -4.483549148188535E-017
 -4.466396846285824E-017 -4.440583638579231E-017 -4.315516149233157E-017
 -4.177321390155037E-017 -4.116975338361135E-017 -4.115688723568420E-017
 -4.080709634699669E-017 -4.070426087192961E-017 -4.019798192234392E-017
 -3.914954606070372E-017 -3.853521329438578E-017 -3.828827440126743E-017
 -3.777294309534854E-017 -3.685412268225953E-017 -3.654979322651924E-017
 -3.436832722730369E-017 -3.420990690187765E-017 -3.371312768217513E-017
 -3.338783547455139E-017 -3.330885803991267E-017 -3.250066462202422E-017
 -3.168439285066655E-017 -3.009597430936648E-017 -2.975420051214333E-017
 -2.937785989215811E-017 -2.872649366701974E-017 -2.725173648906827E-017
 -2.617820295000484E-017 -2.568670479241942E-017 -2.550386630250150E-017
 -2.525394651278002E-017 -2.504192460031266E-017 -2.278323894436823E-017
 -2.254122725052936E-017 -2.148673408148130E-017 -2.127513731294891E-017
 -2.103912694631759E-017 -1.989212825152416E-017 -1.947439448895519E-017
 -1.796315659744766E-017 -1.774739946411323E-017 -1.730573746542908E-017
 -1.699580531772656E-017 -1.683731643026928E-017 -1.463400691136336E-017
 -1.427463760271649E-017 -1.400659056283895E-017 -1.349474663377178E-017
 -1.300756016990947E-017 -1.291064865821318E-017 -1.252925006615472E-017
 -1.240944953657211E-017 -1.233474103313782E-017 -1.158970718044844E-017
 -1.134765301163598E-017 -1.096027444356557E-017 -1.072758852310533E-017
 -1.045851360295961E-017 -1.041533279537216E-017 -9.933360197430352E-018
 -9.373442612802738E-018 -9.368532305452064E-018 -8.859006976264633E-018
 -8.781342362511183E-018 -8.516895689700133E-018 -8.461596591156699E-018
 -8.385096924301103E-018 -8.180749189466072E-018 -8.071074216738258E-018
 -8.032880949805790E-018 -8.017139617587485E-018 -7.843941760067019E-018
 -7.655218314031439E-018 -7.320932255331587E-018 -7.120275937128303E-018
 -6.947516827786126E-018 -6.891035667629142E-018 -6.805667260742162E-018
 -6.797004879458227E-018 -6.794400634657908E-018 -6.753142552639436E-018
 -6.679826682304290E-018 -6.617617931856187E-018 -6.602846057710686E-018
 -6.400861428790596E-018 -6.370665260924660E-018 -6.134087297197623E-018
 -6.014401383613498E-018 -5.980874863265782E-018 -5.964209981881826E-018
 -5.854489772892592E-018 -5.807001419933007E-018 -5.720312582405528E-018
 -5.554732598459210E-018 -5.544609192533257E-018 -5.392759877651204E-018
 -5.332358592962146E-018 -5.321193730898275E-018 -5.315373435852301E-018
 -5.279996537522276E-018 -5.161773560997755E-018 -5.092020803975535E-018
 -5.000361821977218E-018 -4.988566338681626E-018 -4.884759278381653E-018
 -4.766959328944967E-018 -4.690100985212989E-018 -4.604968593633222E-018
 -4.377266646263478E-018 -4.365344143506228E-018 -4.307409670765195E-018
 -4.293033619590477E-018 -4.209906973299530E-018 -4.127999784777595E-018
 -4.065747378938509E-018 -4.062290564115556E-018 -4.052259667817995E-018
 -3.883787697090376E-018 -3.815113038149223E-018 -3.805840226123845E-018
 -3.705722059015544E-018 -3.482766299208341E-018 -3.393940933133757E-018
 -3.370840341116128E-018 -3.282179673124964E-018 -3.128048969899666E-018
 -3.094161789550437E-018 -2.911700840284392E-018 -2.892584634998899E-018
 -2.758282017851840E-018 -2.726665329747343E-018 -2.721625732400424E-018
 -2.546621390560299E-018 -2.514136517388075E-018 -2.457666248265065E-018
 -2.170830213203764E-018 -2.170416549703091E-018 -2.140213652260286E-018
 -1.990347738797140E-018 -1.861479432483498E-018 -1.836947891295726E-018
 -1.742267586594976E-018 -1.643228308719961E-018 -1.597459815456445E-018
 -1.437002755693721E-018 -1.434271322202270E-018 -1.356628860361943E-018
 -1.263834152812553E-018 -1.168720590506716E-018 -1.086092711892842E-018
[...]
     11 :  0.0009 -0.0142  0.0037  0.0030  0.0002  0.0021  0.0023  0.0022 -0.0021 -0.0020
     21 :  0.0030  0.0073  0.0063  0.0069  0.0769  0.0071  0.0092 -0.0313 -0.0304 -0.0492
     31 : -0.0191 -0.0780 -0.0088 -0.0217 -0.0173 -0.0125  0.0100 -0.0071  0.0379  0.0783
     41 :  0.0784 -0.1040  0.0245 -0.0742  0.0436  0.0622  5.4287
  47)
      1 : -0.0441  0.0001  0.0118 -0.0007  0.0161  0.0078  0.0111 -0.0013  0.0002 -0.0003
     11 : -0.0017 -0.0124  0.0017  0.0004 -0.0000  0.0018 -0.0011  0.0004  0.0045  0.0003
     21 :  0.0006  0.0035  0.0042 -0.0029 -0.0249  0.0403 -0.0273 -0.0800  0.0958  0.0403
     31 : -0.0079 -0.0177 -0.0047 -0.0085 -0.0110 -0.0306  0.0391  0.0716  0.0072 -0.1106
     41 :  0.0038  0.1388  0.0624  0.0241 -0.0028  0.0482  0.0475  5.2488

              ** SPIN 2
 ATOM         CORE    1       2       3       4       5       6       7       8       9
           -------------------------------------------------------------------------------
   0)
      1 :  2.1384
   1)
      1 : -0.0014  1.5328
   2)
      1 : -0.0012  0.2715  1.5335
   3)
      1 : -0.0012  0.2750 -0.0496  1.5351
   4)
      1 : -0.0021 -0.0500 -0.0241  0.2774  1.5646
   5)
      1 : -0.0171 -0.0210 -0.0430 -0.0437  0.2697  1.6589
   6)
      1 : -0.0019 -0.0502  0.2801 -0.0242 -0.0472  0.2707  1.5645
   7)
      1 :  0.0004  0.0052 -0.0013 -0.0400  0.1765 -0.0332  0.0034  0.2725
   8)
      1 : -0.0002 -0.0328  0.0057  0.2024 -0.0258  0.0056 -0.0011 -0.0073  0.2872
   9)
      1 : -0.0001  0.2085 -0.0292 -0.0289  0.0056 -0.0020  0.0056 -0.0003 -0.0089  0.2831
  10)
      1 : -0.0002 -0.0327  0.2032  0.0060 -0.0012  0.0058 -0.0257  0.0010 -0.0013 -0.0089
     11 :  0.2871
  11)
      1 :  0.0005  0.0049 -0.0394 -0.0015  0.0031 -0.0351  0.1786 -0.0004  0.0018 -0.0002
     11 : -0.0076  0.2770
  12)
      1 : -0.0418 -0.0000 -0.0000 -0.0000  0.0003  0.0001  0.0001  0.0001  0.0000 -0.0000
     11 :  0.0000  0.0000  5.0720
  13)
      1 : -0.0418 -0.0000  0.0000 -0.0001  0.0000  0.0001  0.0003 -0.0000  0.0000 -0.0000
     11 :  0.0000  0.0001  0.0838  5.0765
  14)
      1 : -0.0429 -0.0000 -0.0000 -0.0000  0.0001 -0.0003  0.0000  0.0001  0.0000 -0.0000
     11 :  0.0000  0.0001  0.0801  0.0816  5.0608
  15)
      1 : -0.0403  0.0000  0.0000  0.0000  0.0000  0.0008 -0.0000 -0.0000 -0.0000  0.0000
     11 : -0.0000 -0.0000  0.0069  0.0104  0.0103  5.0763
  16)
      1 : -0.0404  0.0000  0.0000  0.0000 -0.0000  0.0008  0.0000 -0.0001 -0.0000  0.0000
     11 : -0.0000 -0.0000  0.0105  0.0071  0.0103  0.0873  5.0785
  17)
      1 : -0.0431  0.0000  0.0000  0.0000  0.0000 -0.0001  0.0000  0.0000  0.0000 -0.0000
     11 :  0.0000  0.0000  0.0122  0.0121  0.0110  0.0775  0.0781  5.0668
  18)
      1 : -0.0403  0.0000  0.0000 -0.0000 -0.0001 -0.0001 -0.0000 -0.0000 -0.0000  0.0000
     11 : -0.0000 -0.0001  0.0152  0.0665  0.0763  0.0173  0.0665  0.0715  5.0911
  19)
      1 : -0.0402  0.0000 -0.0000  0.0000 -0.0000 -0.0001 -0.0001 -0.0001 -0.0000  0.0000
     11 : -0.0000 -0.0000  0.0644  0.0152  0.0760  0.0660  0.0174  0.0713  0.0771  5.0864
  20)
      1 : -0.0396  0.0000  0.0000  0.0000 -0.0001  0.0001 -0.0001 -0.0000 -0.0000  0.0000
     11 : -0.0000 -0.0000  0.0647  0.0652  0.0158  0.0712  0.0719  0.0171  0.0697  0.0683
     21 :  5.0870
  21)
      1 : -0.0407  0.0000 -0.0000  0.0000  0.0003  0.0003 -0.0001  0.0000  0.0000 -0.0000
     11 : -0.0000 -0.0000  0.0648  0.0143  0.0632  0.0646  0.0142  0.0657  0.0106  0.0124
     21 :  0.0114  5.0776
  22)
      1 : -0.0402  0.0000  0.0000  0.0000  0.0001  0.0019  0.0002 -0.0001 -0.0000  0.0000
     11 : -0.0000 -0.0002  0.0648  0.0649  0.0127  0.0703  0.0696  0.0150  0.0111  0.0110
     21 :  0.0135  0.0632  5.0948
  23)
      1 : -0.0409  0.0000  0.0000 -0.0000 -0.0001  0.0003  0.0002 -0.0000  0.0000 -0.0000
     11 :  0.0000  0.0000  0.0147  0.0643  0.0642  0.0143  0.0645  0.0655  0.0128  0.0108
     21 :  0.0117  0.0602  0.0623  5.0780
  24)
      1 : -0.0932  0.0006  0.0009  0.0008  0.0015  0.0054  0.0018  0.0004  0.0000  0.0001
     11 : -0.0000  0.0003 -0.0259 -0.0276  0.0136  0.0025  0.0021 -0.0346 -0.0004  0.0006
     21 : -0.0101  0.0008  0.0138  0.0006  6.0582
  25)
      1 : -0.0915  0.0008  0.0014 -0.0005  0.0016  0.0053  0.0024  0.0006  0.0000 -0.0001
     11 : -0.0001 -0.0008  0.0134 -0.0320 -0.0388 -0.0269  0.0021 -0.0009 -0.0132  0.0015
     21 :  0.0081  0.0018  0.0057  0.0094 -0.0846  6.0553
  26)
      1 : -0.0924  0.0007 -0.0012  0.0014  0.0020  0.0056  0.0007 -0.0008 -0.0001 -0.0000
     11 : -0.0001  0.0007 -0.0321  0.0109 -0.0386  0.0024 -0.0268 -0.0005  0.0009 -0.0133
     21 :  0.0084  0.0106  0.0058  0.0010 -0.0825 -0.0805  6.0618
  27)
      1 : -0.0908 -0.0007 -0.0007 -0.0001 -0.0106 -0.0380  0.0039 -0.0028 -0.0001 -0.0001
     11 :  0.0003  0.0052 -0.0288  0.0104  0.0122 -0.0044 -0.0365 -0.0272  0.0114  0.0018
     21 : -0.0033 -0.0034 -0.0105 -0.0021 -0.0321 -0.3753 -0.0167  6.1970
  28)
      1 : -0.0909 -0.0008  0.0000 -0.0011  0.0054 -0.0369 -0.0088  0.0059  0.0004 -0.0001
     11 : -0.0001 -0.0031  0.0101 -0.0288  0.0122 -0.0368 -0.0052 -0.0268  0.0008  0.0104
     21 : -0.0048 -0.0019 -0.0100 -0.0019 -0.0289 -0.0084 -0.3734 -0.0988  6.1957
  29)
      1 : -0.0876 -0.0002  0.0006  0.0006 -0.0010  0.0075  0.0000 -0.0038 -0.0004  0.0001
     11 : -0.0003 -0.0023 -0.0041 -0.0034 -0.0407 -0.0209 -0.0206  0.0165 -0.0010 -0.0005
     21 :  0.0094  0.0159  0.0023  0.0164 -0.2919  0.0131  0.0117 -0.1674 -0.1657  6.0086
  30)
      1 : -0.0883  0.0013  0.0030 -0.0019 -0.0107 -0.0001  0.0033 -0.0042 -0.0010  0.0000
     11 : -0.0001  0.0007  0.0089 -0.0067  0.0125 -0.0003  0.0111 -0.0013  0.0004 -0.0293
     21 :  0.0044  0.0169 -0.0235 -0.0239  0.1241  0.1211 -0.1505  0.1610 -0.2450  0.1780
     31 :  6.0314
  31)
      1 : -0.0867  0.0019  0.0000  0.0014 -0.0080 -0.0159 -0.0125  0.0008 -0.0001  0.0001
     11 : -0.0004  0.0004  0.0117  0.0110 -0.0092  0.0001 -0.0002  0.0065  0.0042  0.0048
     21 : -0.0229 -0.0256  0.0177 -0.0251 -0.1908  0.1169  0.1188  0.1356  0.1380 -0.1629
     31 : -0.1136  6.0079
  32)
      1 : -0.0872  0.0012 -0.0009  0.0030  0.0031  0.0024 -0.0080  0.0008 -0.0002  0.0001
     11 : -0.0006 -0.0063 -0.0075  0.0083  0.0141  0.0110  0.0001  0.0001 -0.0296 -0.0001
     21 :  0.0033 -0.0217 -0.0231  0.0188  0.1294 -0.1412  0.1299 -0.2432  0.1553  0.1681
     31 : -0.1295 -0.1111  6.0203
  33)
      1 : -0.0994 -0.0009 -0.0011 -0.0013  0.0048 -0.0311  0.0054  0.0030  0.0004 -0.0004
     11 :  0.0004  0.0030  0.0050  0.0049  0.0190 -0.0035 -0.0034 -0.0047 -0.0320 -0.0329
     21 :  0.0013 -0.0022 -0.0448 -0.0022 -0.1982  0.1401  0.1321  0.2327  0.2329 -0.2167
     31 : -0.0254 -0.3370 -0.0247  6.1679
  34)
      1 : -0.0977 -0.0006 -0.0005 -0.0008 -0.0005  0.0015  0.0002  0.0004  0.0000  0.0000
     11 :  0.0001  0.0026  0.0046 -0.0017 -0.0063 -0.0135  0.0147  0.0086  0.0102 -0.0347
     21 : -0.0345 -0.0003  0.0004 -0.0288  0.1821 -0.1827  0.1664 -0.1570  0.1110  0.1351
     31 :  0.0024  0.0065 -0.3125 -0.1298  6.0232
  35)
      1 : -0.0959 -0.0005 -0.0005 -0.0001  0.0003  0.0016 -0.0003  0.0017  0.0002  0.0000
     11 : -0.0000  0.0004 -0.0014  0.0050 -0.0063  0.0161 -0.0134  0.0108 -0.0343  0.0124
     21 : -0.0347 -0.0274 -0.0000  0.0005  0.1802  0.1664 -0.1775  0.1078 -0.1540  0.1266
     31 : -0.3085  0.0063  0.0007 -0.1227 -0.0638  5.9955
  36)
      1 : -0.0425  0.0029 -0.0011  0.0034  0.0037  0.0036  0.0028 -0.0010  0.0004 -0.0016
     11 : -0.0007 -0.0013  0.0047 -0.0008  0.0013 -0.0015  0.0005  0.0037  0.0025  0.0017
     21 : -0.0012  0.0001 -0.0017 -0.0020 -0.0580  0.0293 -0.0453 -0.0504  0.0520  0.0053
     31 : -0.0213 -0.0064  0.0480  0.0599 -0.0508  0.0140  5.1539
  37)
      1 : -0.0437  0.0009  0.0014 -0.0027 -0.0017  0.0036  0.0038  0.0004 -0.0007 -0.0008
     11 :  0.0004  0.0005 -0.0011  0.0048  0.0011  0.0007 -0.0011  0.0030  0.0022  0.0025
     21 : -0.0003 -0.0025 -0.0023 -0.0006 -0.0589 -0.0484  0.0157  0.0516 -0.0477  0.0128
     31 :  0.0527 -0.0026 -0.0197  0.0514  0.0179 -0.0423  0.0729  5.1501
  38)
      1 : -0.0428  0.0005 -0.0018 -0.0008 -0.0090  0.0023 -0.0092  0.0056  0.0012  0.0012
     11 :  0.0011  0.0047 -0.0014 -0.0014  0.0023  0.0046  0.0045 -0.0003  0.0008  0.0015
     21 :  0.0047  0.0006 -0.0003  0.0010  0.0446 -0.0397 -0.0337 -0.0059 -0.0071 -0.0426
     31 : -0.0085  0.0601 -0.0094 -0.0858  0.0329  0.0296  0.0282  0.0490  5.2340
  39)
      1 : -0.0458 -0.0159 -0.0159 -0.0368 -0.0384  0.0128 -0.0352  0.0117  0.0020  0.0042
     11 :  0.0050  0.0124 -0.0086  0.0020  0.0019  0.0038  0.0021 -0.0003 -0.0002  0.0013
     21 :  0.0034 -0.0021 -0.0023  0.0051  0.0304 -0.0759  0.0050  0.1027 -0.0976 -0.0485
     31 :  0.0763  0.0967 -0.0969 -0.0719  0.0683 -0.0114 -0.0866  0.0156  0.1359  5.4562
  40)
      1 : -0.0432 -0.0041 -0.0272 -0.0047 -0.0159  0.0084 -0.0246  0.0075  0.0047  0.0020
     11 :  0.0006  0.0120  0.0020 -0.0080  0.0025  0.0020  0.0032  0.0006  0.0009  0.0005
     21 :  0.0025  0.0047 -0.0015  0.0002  0.0253  0.0049 -0.0550 -0.0864  0.1069 -0.0605
     31 : -0.0966  0.0977  0.0725 -0.0580 -0.0152  0.0521 -0.0003 -0.0475  0.1026  0.1637
     41 :  5.3045
  41)
      1 : -0.0410  0.0115  0.0031  0.0003  0.0088  0.0242  0.0256 -0.0058 -0.0011 -0.0035
     11 :  0.0005 -0.0060  0.0028  0.0039 -0.0026  0.0006  0.0009  0.0041  0.0020  0.0012
     21 : -0.0016 -0.0024  0.0033 -0.0022 -0.0826  0.0218  0.0097 -0.0362 -0.0420  0.0627
     31 :  0.0681 -0.0567  0.0466  0.0588 -0.0377 -0.0337  0.0631  0.0578 -0.0905 -0.1246
     41 : -0.0845  5.3384
  42)
      1 : -0.0424 -0.0040  0.0082 -0.0081  0.0036  0.0001  0.0074 -0.0034 -0.0010 -0.0001
     11 : -0.0011 -0.0013  0.0021  0.0040  0.0027 -0.0008 -0.0007  0.0002  0.0046 -0.0009
     21 :  0.0025  0.0019  0.0001  0.0004  0.0081  0.0307 -0.0444  0.0005  0.0422 -0.0067
     31 :  0.0406 -0.0538 -0.0451  0.0248 -0.0062 -0.0358  0.0606  0.0221  0.0179  0.0010
     41 : -0.0280  0.0904  5.1661
  43)
      1 : -0.0441 -0.0116 -0.0086 -0.0030  0.0004  0.0097 -0.0039 -0.0023 -0.0014  0.0000
     11 : -0.0010 -0.0027 -0.0013 -0.0014  0.0002  0.0019  0.0019 -0.0008  0.0043  0.0046
     21 :  0.0002 -0.0000  0.0039  0.0000 -0.0511  0.0166  0.0192 -0.0261 -0.0242  0.0493
     31 : -0.0213  0.0610 -0.0209 -0.0678  0.0069  0.0032  0.0610  0.0708  0.0050  0.0416
     41 :  0.0308  0.0413  0.0698  5.2058
  44)
      1 : -0.0416  0.0001 -0.0021  0.0076  0.0082  0.0008  0.0009 -0.0018 -0.0003 -0.0000
     11 : -0.0010 -0.0032  0.0040  0.0017  0.0030 -0.0004 -0.0002  0.0008 -0.0008  0.0043
     21 :  0.0022  0.0013  0.0004  0.0024  0.0184 -0.0360  0.0349  0.0392 -0.0022 -0.0180
     31 : -0.0516 -0.0502  0.0416  0.0228 -0.0429 -0.0055  0.0312  0.0417  0.0222 -0.0507
     41 :  0.0252  0.0775  0.0686  0.0611  5.1649
  45)
      1 : -0.0435  0.0003 -0.0015  0.0127  0.0210  0.0071  0.0086 -0.0053 -0.0023  0.0000
     11 :  0.0002 -0.0012  0.0009  0.0013 -0.0000  0.0004  0.0021  0.0011  0.0005  0.0049
     21 :  0.0008 -0.0012  0.0047  0.0041 -0.0198 -0.0297  0.0422  0.0922 -0.0873  0.0426
     31 : -0.0169 -0.0146  0.0000 -0.0172 -0.0364 -0.0028  0.0753  0.0137  0.0274 -0.0202
     41 : -0.0618  0.1024 -0.0140  0.0300  0.0597  5.2238
  46)
      1 : -0.0461 -0.0026  0.0106  0.0101 -0.0398  0.1434 -0.0385 -0.0128  0.0010  0.0021
     11 :  0.0008 -0.0140  0.0036  0.0030  0.0001  0.0020  0.0021  0.0022 -0.0021 -0.0019
     21 :  0.0027  0.0074  0.0064  0.0070  0.0757  0.0069  0.0095 -0.0318 -0.0311 -0.0481
     31 : -0.0187 -0.0776 -0.0082 -0.0181 -0.0168 -0.0123  0.0087 -0.0094  0.0411  0.0769
     41 :  0.0761 -0.1062  0.0245 -0.0744  0.0434  0.0621  5.4083
  47)
      1 : -0.0431  0.0001  0.0117 -0.0007  0.0155  0.0077  0.0130 -0.0022  0.0002 -0.0003
     11 : -0.0018 -0.0097  0.0015  0.0007 -0.0002  0.0013 -0.0006  0.0004  0.0048  0.0003
     21 :  0.0006  0.0037  0.0044 -0.0028 -0.0252  0.0423 -0.0300 -0.0799  0.0927  0.0443
     31 : -0.0003 -0.0177 -0.0110 -0.0086 -0.0103 -0.0343  0.0386  0.0724  0.0107 -0.1080
     41 : -0.0107  0.1335  0.0620  0.0253 -0.0048  0.0600  0.0465  5.2202



 ======================
 Atomic Charge Analysis
 ======================
  
 Deformation charges with respect to neutral atoms.
 
   ----------------------------------------------------------
     Atom      Hirshfeld     Voronoi         CM5    Mulliken
   ----------------------------------------------------------
      1  C        -0.044      -0.051      -0.100      -0.184
      2  C        -0.043      -0.044      -0.099      -0.179
      3  C        -0.042      -0.043      -0.099      -0.180
      4  C        -0.072      -0.050      -0.144      -0.184
      5  C        -0.125      -0.158      -0.206      -0.291
      6  C        -0.074      -0.052      -0.146      -0.187
      7  H         0.010       0.043       0.065       0.263
      8  H         0.052       0.067       0.106       0.146
      9  H         0.053       0.064       0.108       0.146
     10  H         0.051       0.067       0.106       0.145
     11  H         0.011       0.040       0.067       0.256
     12  Cu       -0.014      -0.023      -0.014       0.020
     13  Cu       -0.016      -0.023      -0.016       0.017
     14  Cu       -0.018      -0.027      -0.018       0.009
     15  Cu       -0.018      -0.027      -0.018       0.025
     16  Cu       -0.018      -0.027      -0.018       0.022
     17  Cu       -0.004      -0.010      -0.004       0.016
     18  Cu       -0.011      -0.018      -0.011      -0.007
     19  Cu       -0.011      -0.013      -0.011      -0.005
     20  Cu        0.001      -0.000       0.001       0.023
     21  Cu        0.003       0.001       0.003       0.025
     22  Cu        0.008       0.009       0.008       0.019
     23  Cu        0.004       0.002       0.004       0.024
     24  Cu        0.018       0.031       0.018      -0.055
     25  Cu        0.015       0.026       0.015      -0.035
     26  Cu        0.015       0.024       0.015      -0.039
     27  Cu        0.014       0.024       0.014      -0.015
     28  Cu        0.014       0.023       0.014      -0.016
     29  Cu        0.014       0.025       0.015      -0.031
     30  Cu        0.012       0.022       0.012      -0.046
     31  Cu        0.010       0.020       0.010      -0.020
     32  Cu        0.012       0.022       0.012      -0.048
     33  Cu        0.012       0.019       0.012      -0.039
     34  Cu        0.012       0.024       0.012      -0.043
     35  Cu        0.012       0.022       0.012      -0.041
     36  Cu       -0.005      -0.013      -0.005       0.040
     37  Cu       -0.007      -0.015      -0.007       0.038
     38  Cu       -0.014      -0.024      -0.014       0.000
     39  Cu        0.055       0.049       0.086       0.271
     40  Cu        0.052       0.042       0.077       0.189
     41  Cu        0.006      -0.019       0.008      -0.043
     42  Cu       -0.007      -0.020      -0.006       0.030
     43  Cu        0.009       0.002       0.011       0.051
     44  Cu       -0.007      -0.022      -0.007       0.016
     45  Cu        0.018      -0.015       0.021      -0.078
     46  Cu        0.047       0.043       0.096       0.031
     47  Cu        0.011      -0.015       0.014      -0.054
   ----------------------------------------------------------
      Total:       0.000      -0.000       0.000       0.000
   ----------------------------------------------------------
 



 ============================================
 Atomic Charge Analysis (Spin Up - Spin Down)
 ============================================
  
   ----------------------------------------------------------
     Atom      Hirshfeld     Voronoi         CM5    Mulliken
   ----------------------------------------------------------
      1  C        -0.004      -0.003      -0.004      -0.003
      2  C        -0.008      -0.008      -0.008      -0.011
      3  C        -0.008      -0.008      -0.008      -0.010
      4  C        -0.004      -0.002      -0.004      -0.001
      5  C         0.003       0.005       0.003       0.009
      6  C        -0.006      -0.004      -0.006      -0.003
      7  H        -0.002      -0.005      -0.002       0.001
      8  H        -0.001      -0.001      -0.001       0.000
      9  H        -0.000      -0.001      -0.000       0.000
     10  H        -0.001      -0.001      -0.001       0.000
     11  H        -0.004      -0.009      -0.004       0.001
     12  Cu       -0.029      -0.026      -0.029      -0.028
     13  Cu       -0.023      -0.019      -0.023      -0.021
     14  Cu       -0.051      -0.048      -0.051      -0.041
     15  Cu       -0.031      -0.028      -0.031      -0.029
     16  Cu       -0.029      -0.027      -0.029      -0.028
     17  Cu       -0.034      -0.029      -0.034      -0.021
     18  Cu       -0.034      -0.039      -0.034      -0.043
     19  Cu       -0.041      -0.047      -0.041      -0.052
     20  Cu       -0.034      -0.037      -0.034      -0.039
     21  Cu       -0.046      -0.054      -0.046      -0.060
     22  Cu       -0.040      -0.042      -0.040      -0.054
     23  Cu       -0.045      -0.052      -0.045      -0.060
     24  Cu       -0.013      -0.011      -0.013      -0.003
     25  Cu       -0.013      -0.011      -0.013      -0.011
     26  Cu       -0.014      -0.013      -0.014      -0.014
     27  Cu       -0.019      -0.019      -0.019      -0.019
     28  Cu       -0.016      -0.015      -0.016      -0.015
     29  Cu       -0.019      -0.017      -0.019      -0.008
     30  Cu       -0.018      -0.015      -0.018      -0.007
     31  Cu       -0.014      -0.013      -0.014      -0.011
     32  Cu       -0.017      -0.015      -0.017      -0.008
     33  Cu        0.006       0.010       0.006       0.019
     34  Cu       -0.019      -0.018      -0.019      -0.015
     35  Cu       -0.022      -0.021      -0.022      -0.018
     36  Cu       -0.029      -0.033      -0.029      -0.042
     37  Cu       -0.030      -0.035      -0.030      -0.043
     38  Cu       -0.024      -0.024      -0.024      -0.025
     39  Cu       -0.028      -0.032      -0.028      -0.041
     40  Cu       -0.029      -0.032      -0.029      -0.046
     41  Cu       -0.029      -0.029      -0.029      -0.034
     42  Cu       -0.032      -0.032      -0.032      -0.030
     43  Cu       -0.035      -0.032      -0.035      -0.033
     44  Cu       -0.031      -0.031      -0.031      -0.030
     45  Cu       -0.026      -0.025      -0.026      -0.025
     46  Cu       -0.028      -0.025      -0.028      -0.021
     47  Cu       -0.029      -0.027      -0.029      -0.029
   ----------------------------------------------------------
      Total:      -1.000      -1.000      -1.000      -1.000
   ----------------------------------------------------------
 
 WARNING: matrix written, but never read. Matrix name: S(C/C)**-1
 WARNING: matrix written, but never read. Matrix name: PEDA_T(C/F)
 WARNING: matrix written, but never read. Matrix name: PEDA_Occup


    =====================
     CALCULATION RESULTS
    =====================

Energy (hartree)            -7.50101785



 =================
 Timing Statistics
 =================
  
 Total Used :                     CPU=     9035.75      System=      312.13     Elapsed=     9596.59

 Calls  Section                     ( Mean, Percentage )
 ---------------------------------------------------------------------------------------------------
     3  ><      ................      4.34    0.14             0.53    0.51             4.91    0.15
     1  GETINP  ................      0.40    0.00             0.07    0.02             2.63    0.03
    72  EIGSYS  ................    125.31   99.85             4.31   99.46           133.04   99.82

AMS application finished. Exiting.
 NORMAL TERMINATION
     Total cpu time:    9049.19
  Total system time:     316.23
 Total elapsed time:    9615.50
