

 Parallel Execution: Process Information
 ==============================================================================
 Rank   Node Name                              NodeID   MyNodeRank  NodeMaster
    0   node008                                   0          0          0
    1   node008                                   0          1         -1
    2   node008                                   0          2         -1
    3   node008                                   0          3         -1
    4   node008                                   0          4         -1
    5   node008                                   0          5         -1
    6   node008                                   0          6         -1
    7   node008                                   0          7         -1
    8   node008                                   0          8         -1
    9   node008                                   0          9         -1
   10   node008                                   0         10         -1
   11   node008                                   0         11         -1
   12   node008                                   0         12         -1
   13   node008                                   0         13         -1
   14   node008                                   0         14         -1
   15   node008                                   0         15         -1
   16   node008                                   0         16         -1
   17   node008                                   0         17         -1
   18   node008                                   0         18         -1
   19   node008                                   0         19         -1
   20   node008                                   0         20         -1
   21   node008                                   0         21         -1
   22   node008                                   0         22         -1
   23   node008                                   0         23         -1
 ==============================================================================


May use up to 123235MB of RAM as shared memory on node 0

 *******************************************************************************
 *                                                                             *
 *  -------------------------------------                                      *
 *   Amsterdam Density Functional  (ADF)         2018                          *
 *  -------------------------------------                                      *
 *                                               r70352 2018-11-12             *
 *                                                                             *
 *                                                                             *
 *                              =================                              *
 *                              |               |                              *
 *                              |     A M S     |                              *
 *                              |               |                              *
 *                              =================                              *
 *                                                                             *
 *                                                                             *
 *   Online information and documentation:  https://www.scm.com/support/       *
 *   E-mail:  support@scm.com   info@scm.com                                   *
 *                                                                             *
 *   Scientific publications using ADF results must be properly referenced     *
 *   See the User Manuals (or the web site) for recommended citations          *
 *   The terms and conditions of the End User License Agreement apply to       *
 *   the use of ADF, https://www.scm.com/license-terms/                        *
 *                                                                             *
 **********************  x86_64_linux_intel / intelmpi  ************************
 
 Licensed to: Dr. Ralf Tonner / Philipps-Universt?t, Theoretical Surface Chemistry Group / Marburg / DE
 SCM User ID: u12265
  
 AMS 2018  RunTime: Nov21-2018 13:54:42  Nodes: 1  Procs: 24

 AMS jobname: ams
 AMS jobid  : 1792187226

 Start   directory: /local/2876731.1.parallel/
 Results directory: /local/2876731.1.parallel/ams.results/
 Scratch directory: /local/2876731.1.parallel/amstmp_ams_kid0.1792187226/

       ****************************
       * SINGLE POINT CALCULATION *
       ****************************
 
---------------
Geometry
---------------
Atoms
  Index Symbol       x (bohr)       y (bohr)       z (bohr)
      1     Cu     6.86690793     4.75753491     1.94224040
      2     Cu     6.86690793     9.51506982     1.94224040
      3     Cu     6.86690793    14.27260473     1.94224040
      4     Cu    15.10719084     4.75753491     1.94224040
      5     Cu    15.10719084     9.51506982     1.94224040
      6     Cu    15.10719084    14.27260473     1.94224040
      7     Cu     2.74674999    11.89384442     1.94224040
      8     Cu     2.74674999    16.65142219     1.94224040
      9     Cu     2.74674999     7.13626665     1.94224040
     10     Cu    10.98703290     2.37877460     1.94224040
     11     Cu    10.98703290     7.13630951     1.94224040
     12     Cu    10.98703290    11.89384442     1.94224040
     13     Cu     4.12576133     0.00180787     5.85152574
     14     Cu     4.11735624     4.75256306     5.85152574
     15     Cu     4.11806491     9.51734144     5.85024385
     16     Cu    12.35960035     4.77839383     5.90635557
     17     Cu    12.36057270     9.49082489     5.91008470
     18     Cu    12.35706234    14.27014737     5.83614309
     19     Cu     8.25605482     2.40753420     5.89749889
     20     Cu     8.24623240     7.12980895     5.89085638
     21     Cu     8.25144026    11.86825652     5.88403907
     22     Cu    16.42527354     7.13600948     5.94347204
     23     Cu    16.49028937    11.88324351     5.84377615
     24     Cu    16.48056584    16.64685037     5.85577928
     25     Cu     1.35937475     4.74916277     9.77654916
     26     Cu     1.35779262     9.52028455     9.77398538
     27     Cu     1.37316899    14.27620504     9.76810035
     28     Cu     9.58486636     4.73651883     9.85800729
     29     Cu     9.55772287     9.52841382     9.80947036
     30     Cu     9.61390512    14.29293504     9.73354766
     31     Cu     5.47825545     2.37163113     9.77147988
     32     Cu     5.42401791     7.13352355     9.74426890
     33     Cu     5.47070735    11.90203083     9.76594445
     34     Cu    13.79388751     2.30033933     9.65377928
     35     Cu    13.78113156     7.13622379    10.09183525
     36     Cu    13.77826394    11.95107788     9.68844852
 
Lattice vectors (bohr)
      1    16.48056584     0.00000000     0.00000000
      2     0.00000000    14.28693452     0.00000000
 
Atoms
  Index Symbol   x (angstrom)   y (angstrom)   z (angstrom)
      1     Cu     3.63381118     2.51757905     1.02778936
      2     Cu     3.63381118     5.03515811     1.02778936
      3     Cu     3.63381118     7.55273716     1.02778936
      4     Cu     7.99438111     2.51757905     1.02778936
      5     Cu     7.99438111     5.03515811     1.02778936
      6     Cu     7.99438111     7.55273716     1.02778936
      7     Cu     1.45351750     6.29395141     1.02778936
      8     Cu     1.45351750     8.81155315     1.02778936
      9     Cu     1.45351750     3.77634968     1.02778936
     10     Cu     5.81408743     1.25879331     1.02778936
     11     Cu     5.81408743     3.77637236     1.02778936
     12     Cu     5.81408743     6.29395141     1.02778936
     13     Cu     2.18325887     0.00095668     3.09649407
     14     Cu     2.17881109     2.51494806     3.09649407
     15     Cu     2.17918610     5.03636020     3.09581572
     16     Cu     6.54041884     2.52861712     3.12550877
     17     Cu     6.54093339     5.02232824     3.12748214
     18     Cu     6.53907578     7.55143679     3.08835392
     19     Cu     4.36891606     1.27401223     3.12082201
     20     Cu     4.36371826     3.77293241     3.11730695
     21     Cu     4.36647414     6.28041088     3.11369938
     22     Cu     8.69188044     3.77621359     3.14514996
     23     Cu     8.72628533     6.28834166     3.09239316
     24     Cu     8.72113986     8.80913385     3.09874494
     25     Cu     0.71935014     2.51314871     5.17352702
     26     Cu     0.71851291     5.03791762     5.17217032
     27     Cu     0.72664973     7.55464236     5.16905610
     28     Cu     5.07209285     2.50645782     5.21663280
     29     Cu     5.05772913     5.04221945     5.19094817
     30     Cu     5.08745950     7.56349550     5.15077160
     31     Cu     2.89896794     1.25501315     5.17084447
     32     Cu     2.87026667     3.77489810     5.15644504
     33     Cu     2.89497366     6.29828348     5.16791525
     34     Cu     7.29941092     1.21728715     5.10855999
     35     Cu     7.29266076     3.77632700     5.34036923
     36     Cu     7.29114328     6.32423806     5.12690616
 
Lattice vectors (angstrom)
      1     8.72113986     0.00000000     0.00000000
      2     0.00000000     7.56032016     0.00000000
 
Total System Charge             0.00000
 

 *******************************************************************************
 *                                                                             *
 *  -------------------------------------                                      *
 *   Amsterdam Density Functional  (ADF)         2018                          *
 *  -------------------------------------                                      *
 *                                               r70352 2018-11-12             *
 *                                                                             *
 *                                                                             *
 *                             ===================                             *
 *                             |                 |                             *
 *                             |     B A N D     |                             *
 *                             |                 |                             *
 *                             ===================                             *
 *                                                                             *
 *                                                                             *
 *   Online information and documentation:  https://www.scm.com/support/       *
 *   E-mail:  support@scm.com   info@scm.com                                   *
 *                                                                             *
 *   Scientific publications using ADF results must be properly referenced     *
 *   See the User Manuals (or the web site) for recommended citations          *
 *   The terms and conditions of the End User License Agreement apply to       *
 *   the use of ADF, https://www.scm.com/license-terms/                        *
 *                                                                             *
 **********************  x86_64_linux_intel / intelmpi  ************************
 
 Licensed to: Dr. Ralf Tonner / Philipps-Universt?t, Theoretical Surface Chemistry Group / Marburg / DE
 SCM User ID: u12265
  
 BAND 2018  RunTime: Nov21-2018 13:54:44  Nodes: 1  Procs: 24

 AMS jobname: ams
 AMS jobid  : 1792187226

 Start   directory: /local/2876731.1.parallel/
 Results directory: /local/2876731.1.parallel/ams.results/
 Scratch directory: /local/2876731.1.parallel/amstmp_ams_kid0.1792187226/

 
-----------------
Band Engine Input
-----------------
 
  Basis
   Type DZP
   Core large
  End
  XC
   LDA LDA
   GGA PBE
   dispersion Grimme3 BJdamp
  END
 KSpace
  Regular
  NumberOfPoints 1 1
  end 
 End
 Unrestricted True
 Occupations
 1 198 // 198
 End
 NumericalQuality Good
 Relativity
  Level Scalar
 End
 UseSymmetry False
 SCF
  Mixing 0.2
  Iterations 300
 End
 Convergence
 criterion 1E-6
 NoDegenerate True
 End
 Dependency basis=1e-8
 

   LockSharedArrayModule: size of slices    32 exact locking     T

 Using the following basis set files:
 
 Cu             : /home/ag_tonner/chemsoft/lx24-amd64/adf2018.105r70352/atomicdata/Band/TZP/Cu.3p

 Settings for Grimme 3 dispersion correction

      damping                        BJ
      s6                          1.000
      a1                          0.429
      s8                          0.788
      a2                          4.441

 Other (technical) parameters

      alpha                      14.000
      version                         4
 



 =====================
 C O N F I N E M E N T
 =====================
  
 Basis functions confinement radius        20.000
 Width                                      2.000



 ===============================
 M O D E L   P A R A M E T E R S
 ===============================
  
 DENSITY FUNCTIONAL POTENTIAL (scf)
    LDA:                               VWN                                      
    Gradient Corrections:              PBEc PBEx                               == Not Default ==
 DENSITY FUNCTIONAL ENERGY (post-scf)
    Gradient Corrections:              Becke88 Perdew86 PW91x PW91c EV93x PW...== Not Default ==

 SPIN  (restricted / unrestr.)
    Molecule:                          UNrestricted                            == Not Default ==

 OTHER ASPECTS
    Relativistic Corrections:          scalar (ZORA,APA)                       == Not Default ==

    Nuclear Charge Density Model:      Point Charge Nuclei                      



 ========================
 S. C. F.   O P T I O N S
 ========================
  

 * DIIS settings info for DIRAC   *
    Cond              0.1E+07
    CLarge          20.00
    CHuge           50.00
    DiMix            1.00
    IopPly              1
    NCyDmp              5
    IPrint              0
    Adaptable           F
    Method         diis                
    Dimix Decay fac  1.00

 * DIIS settings info for SCF     *
    Cond              0.1E+07
    CLarge          20.00
    CHuge           20.00
    DiMix            0.20
    IopPly              1
    NCyDmp              1
    IPrint              0
    Adaptable           T
    Method         DIIS                
    Dimix Decay fac  1.00
 growth factor   1.10000000000000     
 shrink factor  0.909090909100000     

    Mix            0.2000
    Degenerate          F
    Edegen          1.0E-04
    SCFRTX           9.90
    Convrg          1.0E-06
    Ncyclx            300
    Vsplit          5.0E-02
 getinp: use Shared Memory T
 blockIterator: dynamic default: T

 FunctionSetOverlapModule: use new routines     3


   size of slices for column locking    32 exact locking




                             **  R A D I A L   F U N C T I O N S  **




                             ---------------------
                                   T Y P E   1
                             ---------------------

 RADIAL POINTS                                         3000




 ............................ D I R A C ................................

 NUCLEAR CHARGE                                29.0000               **>  Cu  <**
 (POINT NUCLEUS)
 VALENCE CHARGE                                11.0000
 NET CHARGE                                     0.0000

 VALENCE ORBITALS INCLUDED IN THE CRYSTAL BASIS
 NR. OF (RADIAL) CORE FUNCTIONS                 5
 Radial grid       nr of points               3000
                   range                      0.10E-05     0.10E+03
  
  ** SCF-FUNCTIONAL INFO **
    ZORA
    SCALAR
  
 Self consistent error   0.71E-08


  Orbital    Q         E(a.u.)     E(eV)           <R>
 -------------------------------------------------------------------
  1S         2.00   -328.701927      -8944.4345   0.052
  2S         2.00    -39.106952      -1064.1543   0.235
  2P         6.00    -33.746027       -918.2761   0.206
  3S         2.00     -4.215480       -114.7091   0.712
  3P         6.00     -2.650795        -72.1318   0.750
  4S         1.00     -0.169306         -4.6070   2.936
  3D        10.00     -0.185354         -5.0437   1.047


 Sum (energy eigenvalues)                    -964.4525
 Total energy LDA                           -1660.0302
              + Becke88                     -1664.1767
              + Becke88+Perdew86            -1663.1599
              + Perdew-Wang (91) X          -1664.1436
              + Perdew-Wang (91) X+C        -1663.0475
              + EV93x+PW91c                 -1663.2155
              + PW86x+Perdew86c             -1663.2642
              + Becke88+LYP                 -1665.5522
              + Becke (alt)                 -1664.1767
              + PBE                         -1662.6404
              + RPBE                        -1662.8513
 Kinetic energy                              1687.4212
 Classical e-e repulsion                      718.4443
 e-nucl. attraction.                        -4000.7992

 ......................................................................


 Sum first order eigenvalues                 -956.6714
 First order  LDA                           -1652.2491
              + Becke88                     -1656.3956
              + Becke88+Perdew86            -1655.3788
              + Perdew-Wang (91) X          -1656.3625
              + Perdew-Wang (91) X+C        -1655.2664
              + EV93x+PW91c                 -1655.4344
              + PW86x+Perdew86c             -1655.4831
              + Becke88+LYP                 -1657.7711
              + Becke (alt)                 -1656.3956
              + PBE                         -1654.8593
              + RPBE                        -1655.0702

 ......................................................................




 SLATER TYPE ORBITAL SETS
   3   2    1.2800
   3   2    6.9000
   4   0    0.8500
   4   0    2.4500
   4   1    1.3700
 nRadialFuncs=           0
 summary of added auto gaussians
                   Type             valence
            Spher. Harm                 zlm
    Nr. of radial func.                   0
 summary of added auto kin gaussians
                   Type     valence kinetic
            Spher. Harm                 zlm
    Nr. of radial func.                   0

 NR. OF RADIAL VALENCE ORBITALS                           7
 NR. OF RADIAL CORE ORBITALS                              5
 NR. OF RADIAL FIT FUNCTIONS                              0



 ======================================================
 R A N G E S    F O R    A T O M I C    O R B I T A L S
 ======================================================
  
   --------------------------------------------------------------------------------
                            valence            core valence kinetic    core kinetic
   --------------------------------------------------------------------------------

             Cutoff       1.000E-07       1.000E-07       1.000E-07       1.000E-07
   --------------------------------------------------------------------------------
 
   --------------------------------------------------------------------------------
               Type         valence            core valence kinetic    core kinetic
   --------------------------------------------------------------------------------
                 Cu           26.70            8.41           27.19            8.21
   --------------------------------------------------------------------------------
 



 ====================
 R U N    C O N F I G
 ====================
  
 
 Use Symmetry  .  .  .  .  .  .  .  .  .  .  .  .  .  .  .  .  F
 Calculate gradient of basis  .  .  .  .  .  .  .  .  .  .  .  F
 Calculate sec. der. of basis .  .  .  .  .  .  .  .  .  .  .  F
 Calculate operator T working on basis .  .  .  .  .  .  .  .  T
 Calculate dk-basis  .  .  .  .  .  .  .  .  .  .  .  .  .  .  F
 Calculate gradient of fit .  .  .  .  .  .  .  .  .  .  .  .  T
 Calculate sec. der. of fit.  .  .  .  .  .  .  .  .  .  .  .  T
 Calculate gradient of fit pot.  .  .  .  .  .  .  .  .  .  .  F
 Kin. energy via grad.  .  .  .  .  .  .  .  .  .  .  .  .  .  F
 Turnover rule for xc.  .  .  .  .  .  .  .  .  .  .  .  .  .  F
 Calculate gradient of energy .  .  .  .  .  .  .  .  .  .  .  F
 Calculate analytical strain derivatives  .  .  .  .  .  .  .  F
 Calculate kin. energy density.  .  .  .  .  .  .  .  .  .  .  F
 Calculate nuc. grad of kin. energy density  .  .  .  .  .  .  F
 Calculate der. of density .  .  .  .  .  .  .  .  .  .  .  .  T
 Calculate second der. of density.  .  .  .  .  .  .  .  .  .  T
 Calculate nuc. grad. of density .  .  .  .  .  .  .  .  .  .  F
 Calculate nuc. grad. of grad. density .  .  .  .  .  .  .  .  F
 Exact rho during SCF.  .  .  .  .  .  .  .  .  .  .  .  .  .  T
 Exact grad. rho during SCF.  .  .  .  .  .  .  .  .  .  .  .  F
 Exact grad. rho post SCF  .  .  .  .  .  .  .  .  .  .  .  .  F
 Store history of dens. matrix.  .  .  .  .  .  .  .  .  .  .  T
 Store original Bloch functions  .  .  .  .  .  .  .  .  .  .  F
 Direct fit .  .  .  .  .  .  .  .  .  .  .  .  .  .  .  .  .  F
 Direct basis  .  .  .  .  .  .  .  .  .  .  .  .  .  .  .  .  T
 STO based fitting.  .  .  .  .  .  .  .  .  .  .  .  .  .  .  F
 Zlm fitting.  .  .  .  .  .  .  .  .  .  .  .  .  .  .  .  .  T
 Calculate fragment energy in mol. grid.  .  .  .  .  .  .  .  T
 Map atoms to unit cell .  .  .  .  .  .  .  .  .  .  .  .  .  T
 Calculate DOS .  .  .  .  .  .  .  .  .  .  .  .  .  .  .  .  F
 Calculate band structure  .  .  .  .  .  .  .  .  .  .  .  .  F
 Calculate EFG .  .  .  .  .  .  .  .  .  .  .  .  .  .  .  .  F
 Calculate properties.  .  .  .  .  .  .  .  .  .  .  .  .  .  T
 Calculate kinetic energy  .  .  .  .  .  .  .  .  .  .  .  .  T
 Save file tape10 .  .  .  .  .  .  .  .  .  .  .  .  .  .  .  F
 Save file Points .  .  .  .  .  .  .  .  .  .  .  .  .  .  .  F



 ==================================================
 G E O M E T R Y    I N    X - Y - Z    F O R M A T
 ==================================================
  
 Cu      3.998456455     1.892705248    -2.077651850
 Cu      3.998456455    -3.150035860    -2.077651850
 Cu      3.998456455    -0.632456806    -2.077651850
 Cu     -0.362113476     1.892705248    -2.077651850
 Cu     -0.362113476    -3.150035860    -2.077651850
 Cu     -0.362113476    -0.632456806    -2.077651850
 Cu      1.818162768    -1.891242553    -2.077651850
 Cu      1.818162768     0.626359181    -2.077651850
 Cu      1.818162768     3.151475874    -2.077651850
 Cu     -2.542407163     0.633919502    -2.077651850
 Cu     -2.542407163     3.151498555    -2.077651850
 Cu     -2.542407163    -1.891242553    -2.077651850
 Cu      2.547904146    -0.623917122    -0.008947140
 Cu      2.543456365     1.890074257    -0.008947140
 Cu      2.543831374    -3.148833769    -0.009625486
 Cu     -1.816075751     1.903743316     0.020067556
 Cu     -1.815561203    -3.162865723     0.022040926
 Cu     -1.817418806    -0.633757182    -0.017087289
 Cu     -3.987578528     0.649138426     0.015380804
 Cu     -3.992776328     3.148058609     0.011865740
 Cu     -3.990020447    -1.904783086     0.008258174
 Cu      0.335385847     3.151339788     0.039708749
 Cu      0.369790744    -1.896852311    -0.013048049
 Cu      0.364645272     0.623939879    -0.006696266
 Cu      1.083995412     1.888274901     2.068085805
 Cu      1.083158182    -3.147276343     2.066729114
 Cu      1.091295006    -0.630551606     2.063614890
 Cu     -3.284401742     1.881584017     2.111191592
 Cu     -3.298765460    -3.142974521     2.085506957
 Cu     -3.269035094    -0.621698471     2.045330389
 Cu      3.263613210     0.630139342     2.065403256
 Cu      3.234911938     3.150024293     2.051003826
 Cu      3.259618928    -1.886910490     2.062474036
 Cu     -1.057083670     0.592413344     2.003118785
 Cu     -1.063833832     3.151453193     2.234928020
 Cu     -1.065351310    -1.860955910     2.021464953
 VEC1     8.721139862     0.000000000     0.000000000
 VEC2     0.000000000     7.560320162     0.000000000

   Total nr. of atoms:         36





                       2 - D I M E N S I O N A L   C R Y S T A L


                             IN K-SPACE ONLY THE GAMMA POINT




   REAL SPACE LATTICE VECTORS                         LENGTH
   --------------------------                         ------
   1)  16.4805658365   0.0000000000                   16.481
   2)   0.0000000000  14.2869345229                   14.287

   ----------------------------------------
   Angles between lattice vectors
   ----------------------------------------

     pair          angle

     2 1            90.000000
 


 SMALLEST INTERATOMIC DISTANCE =      4.636351924065
 BeckeGrid: periodic partition function using cells up to order            5



 ===============================
 K - S P A C E   S A M P L I N G
 ===============================
  
 Custom Regular k-space grid.
 
   Single k-point



 =========
 C E L L S
 =========
  

   Nr. of cells for valence functions:         41



 ===========================
 L I N E A R   S C A L I N G
 ===========================
  
 Neglecting functions
              Valence  1.00E-07
                 Core  1.00E-07
                  Fit  0.00E+00
            Multipole  1.00E-08
   Screening function  3.16E-05



 =========================================
 N U M E R I C A L   I N T E G R A T I O N
 =========================================
  
 Becke grid quality: GOOD           
  
 Lebedev angular grid order:             min:  11 max:  35
 Nr. of radial points:                   min:  91 max:  91

 Total nr. of points                                 765184
 Block length                                           128
 Nr. of unique blocks                                  5978
 Total nr. of blocks                                   5978

 Percentage dummy points                               0.00%
 Nr. of k-points processed together in baspnt            30
 Nr. of symmetry operators (real space)                   1
 Symmetry operators in k-space                            2



 Total charge,    analytically                         1044.000000000000
                  numerically                          1043.999545321097
                  relative error                     -0.44E-06

 Valence density, analytically                          396.000000000000
                  numerically                           395.999578116447
                  relative error                     -0.11E-05



 INTEGRATED CHARGE PER ATOM:

  SET      TOTAL CHARGE      REL. ERROR      Valence CHARGE    REL. ERROR
 ------------------------------------------------------------------------
   1      28.9999835846      -0.566E-06     10.9999839413      -0.146E-05
   2      28.9999845123      -0.534E-06     10.9999847087      -0.139E-05
   3      28.9999886183      -0.392E-06     10.9999886133      -0.104E-05
   4      28.9999841904      -0.545E-06     10.9999842323      -0.143E-05
   5      28.9999839250      -0.554E-06     10.9999839505      -0.146E-05
   6      28.9999895913      -0.359E-06     10.9999897429      -0.932E-06
   7      28.9999876438      -0.426E-06     10.9999877099      -0.112E-05
   8      28.9999874734      -0.432E-06     10.9999878165      -0.111E-05
   9      28.9999936547      -0.219E-06     10.9999934125      -0.599E-06
  10      28.9999880309      -0.413E-06     10.9999881971      -0.107E-05
  11      28.9999798572      -0.695E-06     10.9999801315      -0.181E-05
  12      28.9999879940      -0.414E-06     10.9999880129      -0.109E-05
  13      28.9999875792      -0.428E-06     10.9999902133      -0.890E-06
  14      28.9999868081      -0.455E-06     10.9999888055      -0.102E-05
  15      28.9999872773      -0.439E-06     10.9999891893      -0.983E-06
  16      29.0000021160       0.730E-07     11.0000019705       0.179E-06
  17      29.0000014995       0.517E-07     11.0000016368       0.149E-06
  18      29.0000024728       0.853E-07     11.0000051808       0.471E-06
  19      28.9999883944      -0.400E-06     10.9999905280      -0.861E-06
  20      28.9999831618      -0.581E-06     10.9999848268      -0.138E-05
  21      28.9999902048      -0.338E-06     10.9999922455      -0.705E-06
  22      28.9999949447      -0.174E-06     10.9999953984      -0.418E-06
  23      28.9999859931      -0.483E-06     10.9999883736      -0.106E-05
  24      28.9999866957      -0.459E-06     10.9999891705      -0.984E-06
  25      29.0000014919       0.514E-07     11.0000040691       0.370E-06
  26      28.9999990942      -0.312E-07     11.0000015340       0.139E-06
  27      28.9999925756      -0.256E-06     10.9999923052      -0.700E-06
  28      28.9999560286      -0.152E-05     10.9999580072      -0.382E-05
  29      28.9999635462      -0.126E-05     10.9999651317      -0.317E-05
  30      28.9999919939      -0.276E-06     10.9999903838      -0.874E-06
  31      28.9999830567      -0.584E-06     10.9999830790      -0.154E-05
  32      28.9999833248      -0.575E-06     10.9999840958      -0.145E-05
  33      28.9999860170      -0.482E-06     10.9999861259      -0.126E-05
  34      29.0000000458       0.158E-08     10.9999998942      -0.962E-08
  35      28.9999565342      -0.150E-05     10.9999607051      -0.357E-05
  36      28.9999953887      -0.159E-06     10.9999947773      -0.475E-06

 Norms of functions from routine baspnt
 Maximum error in norms     4.406E-05 for function      406
 Minimum accuracy required  1.000E-03

 Norms of functions from routine corpnt
 Maximum error in norms     1.238E-06 for function      160
 Minimum accuracy required  1.000E-03

 Sparseness info - valence
   nr. of functions             756
   max. nr. of functions        676
   min. nr. of functions        108
   avr. nr. of functions        587
   percentage stored           77.6
 

 Sparseness info - core
   nr. of functions             324
   max. nr. of functions        198
   min. nr. of functions          0
   avr. nr. of functions         96
   percentage stored           29.6
 

 Frozen core overlap error  2.64E-03
 PrepareHam: needLdotB F

 FunctionSetTransformOption:     2
   Cut off:   1.00E-10




 ========================
 Density Fitting (zlmFit)
 ========================
  
 ZlmFit Fit Quality: GOOD           
  
 Max L-expansion:                        min:   8 max:   8
 Nr. of radial interpolation points:     min: 120 max: 120
 BeckeGrid: periodic partition function using cells up to order            5
 skipDiagonalization F parmix=  0.200000000000000      ncylx=         300
 restartSCF F
 forceRestartSolution F



                                          *******************************
                                          *  S C F   P R O C E D U R E  *
                                          *******************************
  

 Nr. of basis functions                  756
 Nr. of core functions                   324
 Nr. of fit functions                      0
 Nr. of symmetry unique K-points           1
 Valence charge                          396.00

 Settings for convergence
 --------------------------------------------------------------------------------
   Initial density:          psi
   start. from max. spin     T
 --------------------------------------------------------------------------------

 cyc=  0 err=0.00E+00 cpu=  80s ela=  86s
 cyc=  1 err=3.27E+00 meth=m nvec= 1 mix=0.2000 cpu=  77s ela=  83s fit=6.57E-03
 cyc=  2 err=1.95E+00 meth=d nvec= 2 mix=0.2000 cpu=  75s ela=  80s fit=5.65E-03
 cyc=  3 err=1.29E+00 meth=d nvec= 3 mix=0.2000 cpu=  91s ela=  97s fit=5.08E-03
 cyc=  4 err=3.03E+00 meth=d nvec= 4 mix=0.1818 cpu=  85s ela=  91s fit=5.03E-03
 cyc=  5 err=6.27E-01 meth=d nvec= 5 mix=0.1818 cpu=  74s ela=  79s fit=4.73E-03
 cyc=  6 err=3.77E-01 meth=d nvec= 6 mix=0.1818 cpu=  71s ela=  75s fit=5.06E-03
 cyc=  7 err=3.13E-01 meth=d nvec= 7 mix=0.1818 cpu=  70s ela=  74s fit=6.32E-03
 cyc=  8 err=2.07E-01 meth=d nvec= 8 mix=0.1818 cpu=  93s ela= 100s fit=7.70E-03
 cyc=  9 err=1.74E-01 meth=d nvec= 9 mix=0.1818 cpu=  84s ela=  89s fit=8.28E-03
 cyc= 10 err=1.29E-01 meth=d nvec=10 mix=0.1818 cpu=  86s ela=  90s fit=8.55E-03
 cyc= 11 err=1.06E-01 meth=d nvec=11 mix=0.2000 cpu=  69s ela=  72s fit=8.76E-03
 cyc= 12 err=8.25E-02 meth=d nvec=12 mix=0.2200 cpu=  70s ela=  75s fit=9.02E-03
 cyc= 13 err=7.65E-02 meth=d nvec=13 mix=0.2420 cpu=  76s ela=  81s fit=9.21E-03
 cyc= 14 err=6.07E-02 meth=d nvec=14 mix=0.2662 cpu=  84s ela=  90s fit=9.35E-03
 RHOPOT WARNING: NEGATIVE CHARGE DENSITY FOUND OF  -1.01E-05 FOR SPIN  1
 RHOPOT WARNING: NEGATIVE CHARGE DENSITY FOUND OF  -1.26E-05 FOR SPIN  2
 cyc= 15 err=4.88E-02 meth=d nvec=15 mix=0.2928 cpu=  94s ela= 100s fit=9.47E-03
 RHOPOT WARNING: NEGATIVE CHARGE DENSITY FOUND OF  -2.63E-05 FOR SPIN  1
 RHOPOT WARNING: NEGATIVE CHARGE DENSITY FOUND OF  -2.81E-05 FOR SPIN  2
 cyc= 16 err=3.35E-02 meth=d nvec=16 mix=0.2807 cpu=  76s ela=  81s fit=9.50E-03
 RHOPOT WARNING: NEGATIVE CHARGE DENSITY FOUND OF  -7.53E-05 FOR SPIN  1
 RHOPOT WARNING: NEGATIVE CHARGE DENSITY FOUND OF  -7.49E-05 FOR SPIN  2
 cyc= 17 err=2.04E-02 meth=d nvec=17 mix=0.2579 cpu=  73s ela=  78s fit=9.53E-03
 RHOPOT WARNING: NEGATIVE CHARGE DENSITY FOUND OF  -6.82E-05 FOR SPIN  1
 RHOPOT WARNING: NEGATIVE CHARGE DENSITY FOUND OF  -6.73E-05 FOR SPIN  2
 cyc= 18 err=1.23E-02 meth=d nvec=18 mix=0.2369 cpu=  71s ela=  75s fit=9.54E-03
 RHOPOT WARNING: NEGATIVE CHARGE DENSITY FOUND OF  -3.26E-05 FOR SPIN  1
 RHOPOT WARNING: NEGATIVE CHARGE DENSITY FOUND OF  -3.21E-05 FOR SPIN  2
 cyc= 19 err=1.11E-02 meth=d nvec=15 mix=0.2606 cpu=  87s ela=  92s fit=9.55E-03
 RHOPOT WARNING: NEGATIVE CHARGE DENSITY FOUND OF  -1.23E-05 FOR SPIN  1
 RHOPOT WARNING: NEGATIVE CHARGE DENSITY FOUND OF  -1.21E-05 FOR SPIN  2
 cyc= 20 err=1.09E-02 meth=d nvec=16 mix=0.2807 cpu=  93s ela=  99s fit=9.55E-03
 cyc= 21 err=8.51E-03 meth=d nvec=17 mix=0.2579 cpu=  75s ela=  80s fit=9.56E-03
 cyc= 22 err=1.02E-02 meth=d nvec=18 mix=0.2344 cpu=  73s ela=  78s fit=9.56E-03
 cyc= 23 err=3.32E-03 meth=d nvec=19 mix=0.2177 cpu=  71s ela=  75s fit=9.56E-03
 cyc= 24 err=2.16E-03 meth=d nvec=18 mix=0.2177 cpu=  77s ela=  81s fit=9.56E-03
 cyc= 25 err=1.94E-03 meth=d nvec=18 mix=0.2369 cpu=  77s ela=  82s fit=9.56E-03
 cyc= 26 err=1.84E-03 meth=d nvec=15 mix=0.2606 cpu=  98s ela= 104s fit=9.56E-03
 cyc= 27 err=1.55E-03 meth=d nvec=16 mix=0.2807 cpu=  82s ela=  88s fit=9.56E-03
 cyc= 28 err=1.42E-03 meth=d nvec=16 mix=0.2807 cpu=  75s ela=  80s fit=9.56E-03
 cyc= 29 err=9.00E-04 meth=d nvec=16 mix=0.2807 cpu=  70s ela=  74s fit=9.56E-03
 cyc= 30 err=8.37E-04 meth=d nvec=16 mix=0.2807 cpu=  70s ela=  75s fit=9.56E-03
 cyc= 31 err=7.98E-04 meth=d nvec=16 mix=0.2807 cpu=  95s ela= 101s fit=9.56E-03
 cyc= 32 err=5.75E-04 meth=d nvec=17 mix=0.2579 cpu=  87s ela=  93s fit=9.56E-03
 cyc= 33 err=5.52E-04 meth=d nvec=18 mix=0.2369 cpu=  76s ela=  81s fit=9.56E-03
 cyc= 34 err=4.63E-04 meth=d nvec=18 mix=0.2369 cpu=  72s ela=  77s fit=9.56E-03
 cyc= 35 err=4.12E-04 meth=d nvec=19 mix=0.2177 cpu=  71s ela=  76s fit=9.56E-03
 cyc= 36 err=4.17E-04 meth=d nvec=20 mix=0.1979 cpu=  78s ela=  83s fit=9.56E-03
 cyc= 37 err=3.57E-04 meth=d nvec=20 mix=0.2000 cpu=  82s ela=  87s fit=9.56E-03
 cyc= 38 err=3.11E-04 meth=d nvec=20 mix=0.2000 cpu= 100s ela= 108s fit=9.56E-03
 cyc= 39 err=2.64E-04 meth=d nvec=20 mix=0.2000 cpu=  79s ela=  85s fit=9.56E-03
 cyc= 40 err=1.75E-04 meth=d nvec=20 mix=0.2000 cpu=  74s ela=  79s fit=9.56E-03
 cyc= 41 err=1.45E-04 meth=d nvec=20 mix=0.2000 cpu=  71s ela=  76s fit=9.56E-03
 cyc= 42 err=1.42E-04 meth=d nvec=20 mix=0.2000 cpu=  83s ela=  88s fit=9.56E-03
 cyc= 43 err=9.03E-05 meth=d nvec=20 mix=0.2000 cpu=  98s ela= 105s fit=9.56E-03
 cyc= 44 err=5.41E-05 meth=d nvec=20 mix=0.2000 cpu=  77s ela=  83s fit=9.56E-03
 cyc= 45 err=4.25E-05 meth=d nvec=20 mix=0.2000 cpu=  74s ela=  79s fit=9.56E-03
 cyc= 46 err=4.45E-05 meth=d nvec=20 mix=0.1818 cpu=  71s ela=  75s fit=9.56E-03
 cyc= 47 err=3.74E-05 meth=d nvec=20 mix=0.2000 cpu=  74s ela=  79s fit=9.56E-03
 cyc= 48 err=1.46E-05 meth=d nvec=20 mix=0.2000 cpu=  77s ela=  83s fit=9.56E-03
 cyc= 49 err=1.07E-05 meth=d nvec=20 mix=0.2000 cpu=  97s ela= 104s fit=9.56E-03
 cyc= 50 err=8.18E-06 meth=d nvec=19 mix=0.2177 cpu=  88s ela=  93s fit=9.56E-03
 cyc= 51 err=5.02E-06 meth=d nvec=17 mix=0.2394 cpu=  75s ela=  81s fit=9.56E-03
 cyc= 52 err=4.54E-06 meth=d nvec=17 mix=0.2579 cpu=  71s ela=  75s fit=9.56E-03
 cyc= 53 err=2.58E-06 meth=d nvec=17 mix=0.2579 cpu=  71s ela=  75s fit=9.56E-03
 cyc= 54 err=2.03E-06 meth=d nvec=17 mix=0.2579 cpu=  96s ela= 103s fit=9.56E-03
 cyc= 55 err=1.62E-06 meth=d nvec=17 mix=0.2579 cpu=  87s ela=  93s fit=9.56E-03

 CONVERGENCE REACHED
 cyc= 56 err=8.77E-07 meth=d nvec=17 mix=0.2579 cpu=  76s ela=  80s fit=9.56E-03


         -------------------- CYCLE   57 --------------------
 Self consistent error (density)                       8.77E-07



                                             *************************
                                             *  P R O P E R T I E S  *
                                             *************************
  



 ===================================
 B A N D   E N E R G Y   R A N G E S
 ===================================
  
 The energies below are in Hartree.
 ========================================================================================
       band      min(up)      max(up)    occup(up)      min(dn)      max(dn)    occup(dn)
 ========================================================================================
          1     -0.49450     -0.49450      1.00000     -0.49449     -0.49449      1.00000
          2     -0.42336     -0.42336      1.00000     -0.42350     -0.42350      1.00000
          3     -0.42274     -0.42274      1.00000     -0.42259     -0.42259      1.00000
          4     -0.41943     -0.41943      1.00000     -0.41943     -0.41943      1.00000
          5     -0.40245     -0.40245      1.00000     -0.40215     -0.40215      1.00000
          6     -0.40137     -0.40137      1.00000     -0.40167     -0.40167      1.00000
          7     -0.36570     -0.36570      1.00000     -0.36572     -0.36572      1.00000
          8     -0.36114     -0.36114      1.00000     -0.36105     -0.36105      1.00000
          9     -0.36097     -0.36097      1.00000     -0.36090     -0.36090      1.00000
         10     -0.36009     -0.36009      1.00000     -0.36041     -0.36041      1.00000
         11     -0.35988     -0.35988      1.00000     -0.36015     -0.36015      1.00000
         12     -0.35924     -0.35924      1.00000     -0.35913     -0.35913      1.00000
         13     -0.35903     -0.35903      1.00000     -0.35871     -0.35871      1.00000
         14     -0.34749     -0.34749      1.00000     -0.34750     -0.34750      1.00000
         15     -0.34594     -0.34594      1.00000     -0.34593     -0.34593      1.00000
         16     -0.34489     -0.34489      1.00000     -0.34489     -0.34489      1.00000
         17     -0.33919     -0.33919      1.00000     -0.33923     -0.33923      1.00000
         18     -0.33824     -0.33824      1.00000     -0.33833     -0.33833      1.00000
         19     -0.33733     -0.33733      1.00000     -0.33713     -0.33713      1.00000
         20     -0.33567     -0.33567      1.00000     -0.33562     -0.33562      1.00000
         21     -0.33548     -0.33548      1.00000     -0.33558     -0.33558      1.00000
         22     -0.32406     -0.32406      1.00000     -0.32415     -0.32415      1.00000
         23     -0.32376     -0.32376      1.00000     -0.32366     -0.32366      1.00000
         24     -0.32330     -0.32330      1.00000     -0.32342     -0.32342      1.00000
         25     -0.32228     -0.32228      1.00000     -0.32208     -0.32208      1.00000
         26     -0.32160     -0.32160      1.00000     -0.32175     -0.32175      1.00000
         27     -0.32042     -0.32042      1.00000     -0.32036     -0.32036      1.00000
         28     -0.32011     -0.32011      1.00000     -0.32006     -0.32006      1.00000
         29     -0.31990     -0.31990      1.00000     -0.31999     -0.31999      1.00000
         30     -0.31350     -0.31350      1.00000     -0.31337     -0.31337      1.00000
         31     -0.31313     -0.31313      1.00000     -0.31328     -0.31328      1.00000
         32     -0.31234     -0.31234      1.00000     -0.31247     -0.31247      1.00000
         33     -0.31203     -0.31203      1.00000     -0.31202     -0.31202      1.00000
         34     -0.31196     -0.31196      1.00000     -0.31191     -0.31191      1.00000
         35     -0.31127     -0.31127      1.00000     -0.31128     -0.31128      1.00000
         36     -0.31091     -0.31091      1.00000     -0.31121     -0.31121      1.00000
         37     -0.31085     -0.31085      1.00000     -0.31072     -0.31072      1.00000
         38     -0.31081     -0.31081      1.00000     -0.31052     -0.31052      1.00000
         39     -0.31017     -0.31017      1.00000     -0.31027     -0.31027      1.00000
         40     -0.30957     -0.30957      1.00000     -0.31014     -0.31014      1.00000
         41     -0.30904     -0.30904      1.00000     -0.30839     -0.30839      1.00000
         42     -0.30592     -0.30592      1.00000     -0.30585     -0.30585      1.00000
         43     -0.30495     -0.30495      1.00000     -0.30496     -0.30496      1.00000
         44     -0.30483     -0.30483      1.00000     -0.30479     -0.30479      1.00000
         45     -0.30439     -0.30439      1.00000     -0.30446     -0.30446      1.00000
         46     -0.30335     -0.30335      1.00000     -0.30334     -0.30334      1.00000
         47     -0.30290     -0.30290      1.00000     -0.30296     -0.30296      1.00000
         48     -0.30008     -0.30008      1.00000     -0.30015     -0.30015      1.00000
         49     -0.29980     -0.29980      1.00000     -0.29976     -0.29976      1.00000
         50     -0.29717     -0.29717      1.00000     -0.29720     -0.29720      1.00000
         51     -0.29578     -0.29578      1.00000     -0.29602     -0.29602      1.00000
         52     -0.29554     -0.29554      1.00000     -0.29535     -0.29535      1.00000
         53     -0.29484     -0.29484      1.00000     -0.29495     -0.29495      1.00000
         54     -0.29471     -0.29471      1.00000     -0.29452     -0.29452      1.00000
         55     -0.29449     -0.29449      1.00000     -0.29432     -0.29432      1.00000
         56     -0.29398     -0.29398      1.00000     -0.29419     -0.29419      1.00000
         57     -0.29173     -0.29173      1.00000     -0.29220     -0.29220      1.00000
         58     -0.29158     -0.29158      1.00000     -0.29110     -0.29110      1.00000
         59     -0.28663     -0.28663      1.00000     -0.28737     -0.28737      1.00000
         60     -0.28582     -0.28582      1.00000     -0.28514     -0.28514      1.00000
         61     -0.28299     -0.28299      1.00000     -0.28303     -0.28303      1.00000
         62     -0.28245     -0.28245      1.00000     -0.28248     -0.28248      1.00000
         63     -0.28217     -0.28217      1.00000     -0.28203     -0.28203      1.00000
         64     -0.28157     -0.28157      1.00000     -0.28169     -0.28169      1.00000
         65     -0.28105     -0.28105      1.00000     -0.28129     -0.28129      1.00000
         66     -0.28103     -0.28103      1.00000     -0.28088     -0.28088      1.00000
         67     -0.28069     -0.28069      1.00000     -0.28077     -0.28077      1.00000
         68     -0.28060     -0.28060      1.00000     -0.28067     -0.28067      1.00000
         69     -0.28055     -0.28055      1.00000     -0.28033     -0.28033      1.00000
         70     -0.28000     -0.28000      1.00000     -0.28013     -0.28013      1.00000
         71     -0.27963     -0.27963      1.00000     -0.28000     -0.28000      1.00000
         72     -0.27948     -0.27948      1.00000     -0.27914     -0.27914      1.00000
         73     -0.27867     -0.27867      1.00000     -0.27907     -0.27907      1.00000
         74     -0.27855     -0.27855      1.00000     -0.27831     -0.27831      1.00000
         75     -0.27822     -0.27822      1.00000     -0.27825     -0.27825      1.00000
         76     -0.27797     -0.27797      1.00000     -0.27773     -0.27773      1.00000
         77     -0.27762     -0.27762      1.00000     -0.27764     -0.27764      1.00000
         78     -0.27569     -0.27569      1.00000     -0.27544     -0.27544      1.00000
         79     -0.27510     -0.27510      1.00000     -0.27533     -0.27533      1.00000
         80     -0.27420     -0.27420      1.00000     -0.27417     -0.27417      1.00000
         81     -0.27400     -0.27400      1.00000     -0.27405     -0.27405      1.00000
         82     -0.27259     -0.27259      1.00000     -0.27258     -0.27258      1.00000
         83     -0.27222     -0.27222      1.00000     -0.27218     -0.27218      1.00000
         84     -0.27099     -0.27099      1.00000     -0.27063     -0.27063      1.00000
         85     -0.27020     -0.27020      1.00000     -0.27042     -0.27042      1.00000
         86     -0.26979     -0.26979      1.00000     -0.26974     -0.26974      1.00000
         87     -0.26931     -0.26931      1.00000     -0.26950     -0.26950      1.00000
         88     -0.26930     -0.26930      1.00000     -0.26931     -0.26931      1.00000
         89     -0.26872     -0.26872      1.00000     -0.26884     -0.26884      1.00000
         90     -0.26854     -0.26854      1.00000     -0.26875     -0.26875      1.00000
         91     -0.26845     -0.26845      1.00000     -0.26835     -0.26835      1.00000
         92     -0.26817     -0.26817      1.00000     -0.26802     -0.26802      1.00000
         93     -0.26798     -0.26798      1.00000     -0.26789     -0.26789      1.00000
         94     -0.26772     -0.26772      1.00000     -0.26766     -0.26766      1.00000
         95     -0.26748     -0.26748      1.00000     -0.26748     -0.26748      1.00000
         96     -0.26741     -0.26741      1.00000     -0.26728     -0.26728      1.00000
         97     -0.26706     -0.26706      1.00000     -0.26716     -0.26716      1.00000
         98     -0.26686     -0.26686      1.00000     -0.26696     -0.26696      1.00000
         99     -0.26652     -0.26652      1.00000     -0.26652     -0.26652      1.00000
        100     -0.26557     -0.26557      1.00000     -0.26546     -0.26546      1.00000
        101     -0.26461     -0.26461      1.00000     -0.26448     -0.26448      1.00000
        102     -0.26436     -0.26436      1.00000     -0.26438     -0.26438      1.00000
        103     -0.26416     -0.26416      1.00000     -0.26422     -0.26422      1.00000
        104     -0.26390     -0.26390      1.00000     -0.26375     -0.26375      1.00000
        105     -0.26335     -0.26335      1.00000     -0.26339     -0.26339      1.00000
        106     -0.26314     -0.26314      1.00000     -0.26323     -0.26323      1.00000
        107     -0.26298     -0.26298      1.00000     -0.26304     -0.26304      1.00000
        108     -0.26274     -0.26274      1.00000     -0.26300     -0.26300      1.00000
        109     -0.26233     -0.26233      1.00000     -0.26234     -0.26234      1.00000
        110     -0.26218     -0.26218      1.00000     -0.26193     -0.26193      1.00000
        111     -0.26115     -0.26115      1.00000     -0.26118     -0.26118      1.00000
        112     -0.25556     -0.25556      1.00000     -0.25566     -0.25566      1.00000
        113     -0.25502     -0.25502      1.00000     -0.25489     -0.25489      1.00000
        114     -0.25489     -0.25489      1.00000     -0.25483     -0.25483      1.00000
        115     -0.25449     -0.25449      1.00000     -0.25443     -0.25443      1.00000
        116     -0.25352     -0.25352      1.00000     -0.25424     -0.25424      1.00000
        117     -0.25336     -0.25336      1.00000     -0.25324     -0.25324      1.00000
        118     -0.25330     -0.25330      1.00000     -0.25309     -0.25309      1.00000
        119     -0.25296     -0.25296      1.00000     -0.25268     -0.25268      1.00000
        120     -0.25215     -0.25215      1.00000     -0.25212     -0.25212      1.00000
        121     -0.25179     -0.25179      1.00000     -0.25184     -0.25184      1.00000
        122     -0.24767     -0.24767      1.00000     -0.24785     -0.24785      1.00000
        123     -0.24765     -0.24765      1.00000     -0.24766     -0.24766      1.00000
        124     -0.24756     -0.24756      1.00000     -0.24751     -0.24751      1.00000
        125     -0.24751     -0.24751      1.00000     -0.24737     -0.24737      1.00000
        126     -0.24609     -0.24609      1.00000     -0.24606     -0.24606      1.00000
        127     -0.24597     -0.24597      1.00000     -0.24585     -0.24585      1.00000
        128     -0.24567     -0.24567      1.00000     -0.24575     -0.24575      1.00000
        129     -0.24554     -0.24554      1.00000     -0.24563     -0.24563      1.00000
        130     -0.24553     -0.24553      1.00000     -0.24554     -0.24554      1.00000
        131     -0.24523     -0.24523      1.00000     -0.24519     -0.24519      1.00000
        132     -0.24491     -0.24491      1.00000     -0.24491     -0.24491      1.00000
        133     -0.24462     -0.24462      1.00000     -0.24449     -0.24449      1.00000
        134     -0.24430     -0.24430      1.00000     -0.24440     -0.24440      1.00000
        135     -0.24411     -0.24411      1.00000     -0.24399     -0.24399      1.00000
        136     -0.24386     -0.24386      1.00000     -0.24386     -0.24386      1.00000
        137     -0.24354     -0.24354      1.00000     -0.24351     -0.24351      1.00000
        138     -0.24297     -0.24297      1.00000     -0.24323     -0.24323      1.00000
        139     -0.24201     -0.24201      1.00000     -0.24193     -0.24193      1.00000
        140     -0.24194     -0.24194      1.00000     -0.24168     -0.24168      1.00000
        141     -0.24121     -0.24121      1.00000     -0.24148     -0.24148      1.00000
        142     -0.24011     -0.24011      1.00000     -0.24047     -0.24047      1.00000
        143     -0.23926     -0.23926      1.00000     -0.23897     -0.23897      1.00000
        144     -0.23828     -0.23828      1.00000     -0.23851     -0.23851      1.00000
        145     -0.23824     -0.23824      1.00000     -0.23805     -0.23805      1.00000
        146     -0.23791     -0.23791      1.00000     -0.23802     -0.23802      1.00000
        147     -0.23740     -0.23740      1.00000     -0.23727     -0.23727      1.00000
        148     -0.23655     -0.23655      1.00000     -0.23649     -0.23649      1.00000
        149     -0.23639     -0.23639      1.00000     -0.23646     -0.23646      1.00000
        150     -0.23413     -0.23413      1.00000     -0.23420     -0.23420      1.00000
        151     -0.23412     -0.23412      1.00000     -0.23415     -0.23415      1.00000
        152     -0.23409     -0.23409      1.00000     -0.23400     -0.23400      1.00000
        153     -0.23270     -0.23270      1.00000     -0.23289     -0.23289      1.00000
        154     -0.23258     -0.23258      1.00000     -0.23257     -0.23257      1.00000
        155     -0.23228     -0.23228      1.00000     -0.23209     -0.23209      1.00000
        156     -0.23202     -0.23202      1.00000     -0.23206     -0.23206      1.00000
        157     -0.23143     -0.23143      1.00000     -0.23142     -0.23142      1.00000
        158     -0.23130     -0.23130      1.00000     -0.23129     -0.23129      1.00000
        159     -0.23126     -0.23126      1.00000     -0.23119     -0.23119      1.00000
        160     -0.23064     -0.23064      1.00000     -0.23068     -0.23068      1.00000
        161     -0.23062     -0.23062      1.00000     -0.23053     -0.23053      1.00000
        162     -0.23043     -0.23043      1.00000     -0.23050     -0.23050      1.00000
        163     -0.23010     -0.23010      1.00000     -0.23008     -0.23008      1.00000
        164     -0.22954     -0.22954      1.00000     -0.22966     -0.22966      1.00000
        165     -0.22947     -0.22947      1.00000     -0.22939     -0.22939      1.00000
        166     -0.22937     -0.22937      1.00000     -0.22933     -0.22933      1.00000
        167     -0.22914     -0.22914      1.00000     -0.22916     -0.22916      1.00000
        168     -0.22834     -0.22834      1.00000     -0.22837     -0.22837      1.00000
        169     -0.22822     -0.22822      1.00000     -0.22822     -0.22822      1.00000
        170     -0.22770     -0.22770      1.00000     -0.22763     -0.22763      1.00000
        171     -0.22702     -0.22702      1.00000     -0.22709     -0.22709      1.00000
        172     -0.22641     -0.22641      1.00000     -0.22644     -0.22644      1.00000
        173     -0.22627     -0.22627      1.00000     -0.22628     -0.22628      1.00000
        174     -0.22601     -0.22601      1.00000     -0.22553     -0.22553      1.00000
        175     -0.22513     -0.22513      1.00000     -0.22547     -0.22547      1.00000
        176     -0.22499     -0.22499      1.00000     -0.22513     -0.22513      1.00000
        177     -0.22495     -0.22495      1.00000     -0.22491     -0.22491      1.00000
        178     -0.22464     -0.22464      1.00000     -0.22475     -0.22475      1.00000
        179     -0.22437     -0.22437      1.00000     -0.22433     -0.22433      1.00000
        180     -0.22426     -0.22426      1.00000     -0.22407     -0.22407      1.00000
        181     -0.22397     -0.22397      1.00000     -0.22395     -0.22395      1.00000
        182     -0.22380     -0.22380      1.00000     -0.22381     -0.22381      1.00000
        183     -0.22372     -0.22372      1.00000     -0.22372     -0.22372      1.00000
        184     -0.22344     -0.22344      1.00000     -0.22363     -0.22363      1.00000
        185     -0.22332     -0.22332      1.00000     -0.22334     -0.22334      1.00000
        186     -0.22324     -0.22324      1.00000     -0.22318     -0.22318      1.00000
        187     -0.22308     -0.22308      1.00000     -0.22305     -0.22305      1.00000
        188     -0.21421     -0.21421      1.00000     -0.21446     -0.21446      1.00000
        189     -0.21395     -0.21395      1.00000     -0.21368     -0.21368      1.00000
        190     -0.21306     -0.21306      1.00000     -0.21300     -0.21300      1.00000
        191     -0.21227     -0.21227      1.00000     -0.21230     -0.21230      1.00000
        192     -0.20684     -0.20684      1.00000     -0.20714     -0.20714      1.00000
        193     -0.20644     -0.20644      1.00000     -0.20638     -0.20638      1.00000
        194     -0.20622     -0.20622      1.00000     -0.20618     -0.20618      1.00000
        195     -0.20605     -0.20605      1.00000     -0.20583     -0.20583      1.00000
        196     -0.17844     -0.17844      1.00000     -0.17951     -0.17951      1.00000
        197     -0.17765     -0.17765      1.00000     -0.17762     -0.17762      1.00000
        198     -0.17717     -0.17717      1.00000     -0.17713     -0.17713      1.00000
        199     -0.17672     -0.17672      0.00000     -0.17571     -0.17571      0.00000
        200     -0.17172     -0.17172      0.00000     -0.17172     -0.17172      0.00000
        201     -0.16016     -0.16016      0.00000     -0.16016     -0.16016      0.00000
        202     -0.15664     -0.15664      0.00000     -0.15691     -0.15691      0.00000
        203     -0.15607     -0.15607      0.00000     -0.15580     -0.15580      0.00000
        204     -0.13619     -0.13619      0.00000     -0.13604     -0.13604      0.00000
        205     -0.13506     -0.13506      0.00000     -0.13521     -0.13521      0.00000
        206     -0.11724     -0.11724      0.00000     -0.11722     -0.11722      0.00000
        207     -0.10075     -0.10075      0.00000     -0.10074     -0.10074      0.00000
        208     -0.08422     -0.08422      0.00000     -0.08470     -0.08470      0.00000
        209     -0.08255     -0.08255      0.00000     -0.08239     -0.08239      0.00000
        210     -0.08208     -0.08208      0.00000     -0.08220     -0.08220      0.00000
        211     -0.08190     -0.08190      0.00000     -0.08146     -0.08146      0.00000
        212     -0.05870     -0.05870      0.00000     -0.05913     -0.05913      0.00000
        213     -0.05781     -0.05781      0.00000     -0.05739     -0.05739      0.00000
        214     -0.02982     -0.02982      0.00000     -0.03074     -0.03074      0.00000
        215     -0.02946     -0.02946      0.00000     -0.02854     -0.02854      0.00000
        216     -0.01849     -0.01849      0.00000     -0.01824     -0.01824      0.00000
        217     -0.01796     -0.01796      0.00000     -0.01814     -0.01814      0.00000
        218     -0.01775     -0.01775      0.00000     -0.01789     -0.01789      0.00000
        219     -0.01751     -0.01751      0.00000     -0.01742     -0.01742      0.00000
        220     -0.00498     -0.00498      0.00000     -0.00500     -0.00500      0.00000
        221     -0.00287     -0.00287      0.00000     -0.00342     -0.00342      0.00000
        222     -0.00250     -0.00250      0.00000     -0.00190     -0.00190      0.00000
        223      0.00743      0.00743      0.00000      0.00743      0.00743      0.00000
        224      0.02343      0.02343      0.00000      0.02272      0.02272      0.00000
        225      0.02406      0.02406      0.00000      0.02482      0.02482      0.00000
        226      0.02694      0.02694      0.00000      0.02693      0.02693      0.00000
        227      0.04226      0.04226      0.00000      0.04217      0.04217      0.00000
        228      0.04271      0.04271      0.00000      0.04242      0.04242      0.00000
        229      0.04316      0.04316      0.00000      0.04287      0.04287      0.00000
        230      0.04458      0.04458      0.00000      0.04524      0.04524      0.00000
        231      0.05210      0.05210      0.00000      0.05208      0.05208      0.00000
        232      0.06110      0.06110      0.00000      0.06130      0.06130      0.00000
        233      0.06216      0.06216      0.00000      0.06198      0.06198      0.00000
        234      0.07141      0.07141      0.00000      0.07092      0.07092      0.00000
        235      0.07151      0.07151      0.00000      0.07140      0.07140      0.00000
        236      0.07217      0.07217      0.00000      0.07247      0.07247      0.00000
        237      0.07279      0.07279      0.00000      0.07316      0.07316      0.00000
        238      0.07426      0.07426      0.00000      0.07435      0.07435      0.00000
        239      0.07503      0.07503      0.00000      0.07491      0.07491      0.00000
        240      0.07735      0.07735      0.00000      0.07669      0.07669      0.00000
        241      0.07773      0.07773      0.00000      0.07841      0.07841      0.00000
        242      0.08177      0.08177      0.00000      0.08176      0.08176      0.00000
        243      0.08458      0.08458      0.00000      0.08383      0.08383      0.00000
        244      0.08486      0.08486      0.00000      0.08565      0.08565      0.00000
        245      0.11088      0.11088      0.00000      0.11078      0.11078      0.00000
        246      0.11159      0.11159      0.00000      0.11166      0.11166      0.00000
        247      0.13444      0.13444      0.00000      0.13442      0.13442      0.00000
        248      0.13560      0.13560      0.00000      0.13557      0.13557      0.00000
        249      0.13787      0.13787      0.00000      0.13703      0.13703      0.00000
        250      0.13796      0.13796      0.00000      0.13777      0.13777      0.00000
        251      0.13826      0.13826      0.00000      0.13905      0.13905      0.00000
        252      0.13956      0.13956      0.00000      0.14037      0.14037      0.00000
        253      0.14142      0.14142      0.00000      0.14084      0.14084      0.00000
        254      0.14815      0.14815      0.00000      0.14833      0.14833      0.00000
        255      0.14848      0.14848      0.00000      0.14860      0.14860      0.00000
        256      0.14871      0.14871      0.00000      0.14869      0.14869      0.00000
        257      0.14962      0.14962      0.00000      0.14939      0.14939      0.00000
        258      0.17402      0.17402      0.00000      0.17372      0.17372      0.00000
        259      0.17476      0.17476      0.00000      0.17479      0.17479      0.00000
        260      0.17537      0.17537      0.00000      0.17505      0.17505      0.00000
        261      0.17596      0.17596      0.00000      0.17657      0.17657      0.00000
        262      0.19202      0.19202      0.00000      0.19125      0.19125      0.00000
        263      0.19207      0.19207      0.00000      0.19303      0.19303      0.00000
        264      0.19380      0.19380      0.00000      0.19366      0.19366      0.00000
        265      0.20154      0.20154      0.00000      0.20151      0.20151      0.00000
        266      0.22635      0.22635      0.00000      0.22631      0.22631      0.00000
        267      0.22737      0.22737      0.00000      0.22728      0.22728      0.00000
        268      0.24268      0.24268      0.00000      0.24336      0.24336      0.00000
        269      0.24437      0.24437      0.00000      0.24353      0.24353      0.00000
        270      0.24516      0.24516      0.00000      0.24487      0.24487      0.00000
        271      0.24527      0.24527      0.00000      0.24557      0.24557      0.00000
        272      0.25008      0.25008      0.00000      0.24986      0.24986      0.00000
        273      0.25084      0.25084      0.00000      0.25084      0.25084      0.00000
        274      0.25107      0.25107      0.00000      0.25112      0.25112      0.00000
        275      0.25144      0.25144      0.00000      0.25191      0.25191      0.00000
        276      0.25564      0.25564      0.00000      0.25479      0.25479      0.00000
        277      0.25697      0.25697      0.00000      0.25782      0.25782      0.00000
        278      0.27061      0.27061      0.00000      0.27047      0.27047      0.00000
        279      0.27153      0.27153      0.00000      0.27169      0.27169      0.00000
        280      0.28618      0.28618      0.00000      0.28592      0.28592      0.00000
        281      0.28691      0.28691      0.00000      0.28718      0.28718      0.00000
        282      0.29143      0.29143      0.00000      0.29172      0.29172      0.00000
        283      0.29207      0.29207      0.00000      0.29186      0.29186      0.00000
        284      0.30010      0.30010      0.00000      0.29958      0.29958      0.00000
        285      0.30048      0.30048      0.00000      0.30040      0.30040      0.00000
        286      0.30097      0.30097      0.00000      0.30060      0.30060      0.00000
        287      0.30258      0.30258      0.00000      0.30338      0.30338      0.00000
        288      0.31604      0.31604      0.00000      0.31597      0.31597      0.00000
        289      0.31711      0.31711      0.00000      0.31727      0.31727      0.00000
        290      0.32944      0.32944      0.00000      0.32946      0.32946      0.00000
        291      0.33995      0.33995      0.00000      0.34030      0.34030      0.00000
        292      0.34165      0.34165      0.00000      0.34101      0.34101      0.00000
        293      0.34267      0.34267      0.00000      0.34291      0.34291      0.00000
        294      0.34364      0.34364      0.00000      0.34361      0.34361      0.00000
        295      0.34618      0.34618      0.00000      0.34608      0.34608      0.00000
        296      0.34653      0.34653      0.00000      0.34693      0.34693      0.00000
        297      0.34776      0.34776      0.00000      0.34769      0.34769      0.00000
        298      0.34886      0.34886      0.00000      0.34893      0.34893      0.00000
        299      0.34939      0.34939      0.00000      0.34940      0.34940      0.00000
        300      0.35003      0.35003      0.00000      0.34977      0.34977      0.00000
        301      0.35902      0.35902      0.00000      0.35892      0.35892      0.00000
        302      0.36280      0.36280      0.00000      0.36315      0.36315      0.00000
        303      0.36379      0.36379      0.00000      0.36361      0.36361      0.00000
        304      0.37486      0.37486      0.00000      0.37447      0.37447      0.00000
        305      0.37591      0.37591      0.00000      0.37631      0.37631      0.00000
        306      0.40051      0.40051      0.00000      0.40052      0.40052      0.00000
        307      0.41563      0.41563      0.00000      0.41582      0.41582      0.00000
        308      0.41782      0.41782      0.00000      0.41739      0.41739      0.00000
        309      0.42177      0.42177      0.00000      0.42309      0.42309      0.00000
        310      0.42561      0.42561      0.00000      0.42431      0.42431      0.00000
        311      0.42643      0.42643      0.00000      0.42680      0.42680      0.00000
        312      0.42713      0.42713      0.00000      0.42696      0.42696      0.00000
        313      0.43666      0.43666      0.00000      0.43671      0.43671      0.00000
        314      0.43734      0.43734      0.00000      0.43710      0.43710      0.00000
        315      0.43855      0.43855      0.00000      0.43795      0.43795      0.00000
        316      0.43939      0.43939      0.00000      0.43949      0.43949      0.00000
        317      0.44025      0.44025      0.00000      0.44021      0.44021      0.00000
        318      0.44149      0.44149      0.00000      0.44238      0.44238      0.00000
        319      0.45919      0.45919      0.00000      0.45907      0.45907      0.00000
        320      0.49137      0.49137      0.00000      0.49130      0.49130      0.00000
        321      0.49307      0.49307      0.00000      0.49331      0.49331      0.00000
        322      0.49358      0.49358      0.00000      0.49377      0.49377      0.00000
        323      0.49559      0.49559      0.00000      0.49527      0.49527      0.00000
        324      0.50176      0.50176      0.00000      0.50182      0.50182      0.00000
        325      0.51199      0.51199      0.00000      0.51201      0.51201      0.00000
        326      0.51290      0.51290      0.00000      0.51290      0.51290      0.00000
        327      0.52690      0.52690      0.00000      0.52687      0.52687      0.00000
        328      0.52761      0.52761      0.00000      0.52761      0.52761      0.00000
        329      0.52935      0.52935      0.00000      0.52834      0.52834      0.00000
        330      0.53097      0.53097      0.00000      0.53197      0.53197      0.00000
        331      0.54059      0.54059      0.00000      0.54020      0.54020      0.00000
        332      0.54192      0.54192      0.00000      0.54237      0.54237      0.00000
        333      0.55523      0.55523      0.00000      0.55488      0.55488      0.00000
        334      0.55617      0.55617      0.00000      0.55569      0.55569      0.00000
        335      0.55675      0.55675      0.00000      0.55655      0.55655      0.00000
        336      0.55707      0.55707      0.00000      0.55815      0.55815      0.00000
        337      0.59623      0.59623      0.00000      0.59617      0.59617      0.00000
        338      0.59906      0.59906      0.00000      0.59899      0.59899      0.00000
        339      0.60205      0.60205      0.00000      0.60219      0.60219      0.00000
        340      0.60440      0.60440      0.00000      0.60400      0.60400      0.00000
        341      0.60497      0.60497      0.00000      0.60546      0.60546      0.00000
        342      0.61060      0.61060      0.00000      0.61042      0.61042      0.00000
        343      0.61134      0.61134      0.00000      0.61062      0.61062      0.00000
        344      0.61195      0.61195      0.00000      0.61271      0.61271      0.00000
        345      0.62949      0.62949      0.00000      0.62922      0.62922      0.00000
        346      0.63033      0.63033      0.00000      0.63055      0.63055      0.00000
        347      0.63813      0.63813      0.00000      0.63877      0.63877      0.00000
        348      0.64138      0.64138      0.00000      0.64054      0.64054      0.00000
        349      0.64598      0.64598      0.00000      0.64587      0.64587      0.00000
        350      0.64686      0.64686      0.00000      0.64685      0.64685      0.00000
        351      0.64747      0.64747      0.00000      0.64785      0.64785      0.00000
        352      0.67409      0.67409      0.00000      0.67407      0.67407      0.00000
        353      0.67542      0.67542      0.00000      0.67532      0.67532      0.00000
        354      0.67741      0.67741      0.00000      0.67773      0.67773      0.00000
        355      0.67935      0.67935      0.00000      0.67911      0.67911      0.00000
        356      0.68623      0.68623      0.00000      0.68702      0.68702      0.00000
        357      0.68886      0.68886      0.00000      0.68777      0.68777      0.00000
        358      0.69248      0.69248      0.00000      0.69237      0.69237      0.00000
        359      0.69313      0.69313      0.00000      0.69344      0.69344      0.00000
        360      0.69522      0.69522      0.00000      0.69545      0.69545      0.00000
        361      0.69602      0.69602      0.00000      0.69594      0.69594      0.00000
        362      0.72060      0.72060      0.00000      0.72056      0.72056      0.00000
        363      0.72181      0.72181      0.00000      0.72206      0.72206      0.00000
        364      0.72288      0.72288      0.00000      0.72256      0.72256      0.00000
        365      0.73331      0.73331      0.00000      0.73345      0.73345      0.00000
        366      0.73426      0.73426      0.00000      0.73413      0.73413      0.00000
        367      0.73502      0.73502      0.00000      0.73469      0.73469      0.00000
        368      0.73648      0.73648      0.00000      0.73684      0.73684      0.00000
        369      0.76183      0.76183      0.00000      0.76079      0.76079      0.00000
        370      0.76202      0.76202      0.00000      0.76311      0.76311      0.00000
        371      0.78470      0.78470      0.00000      0.78436      0.78436      0.00000
        372      0.78655      0.78655      0.00000      0.78706      0.78706      0.00000
        373      0.78922      0.78922      0.00000      0.78868      0.78868      0.00000
        374      0.79051      0.79051      0.00000      0.79108      0.79108      0.00000
        375      0.79611      0.79611      0.00000      0.79564      0.79564      0.00000
        376      0.79651      0.79651      0.00000      0.79664      0.79664      0.00000
        377      0.79747      0.79747      0.00000      0.79715      0.79715      0.00000
        378      0.79762      0.79762      0.00000      0.79799      0.79799      0.00000
        379      0.79985      0.79985      0.00000      0.79994      0.79994      0.00000
        380      0.80009      0.80009      0.00000      0.80034      0.80034      0.00000
        381      0.80075      0.80075      0.00000      0.80069      0.80069      0.00000
        382      0.80116      0.80116      0.00000      0.80115      0.80115      0.00000
 ========================================================================================

----------------------------------------
Band gap information
----------------------------------------
Number of valence electrons                   396
Valence band index                            198
Valence band spin index                         2
Conduction band index                         199
Conduction band spin index                      1
Top of valence band (a.u.)                 -0.177
Bottom of conduction band (a.u.)           -0.177
Band gap (a.u.)                             0.000
Band gap (eV)                               0.011
Band gap (kcal/mol)                         0.253
 



 ===================================
 B A N D   E N E R G Y   R A N G E S
 ===================================
  
 The energies below are in Hartree.
 ========================================================================================
       band      min(up)      max(up)    occup(up)      min(dn)      max(dn)    occup(dn)
 ========================================================================================
          1     -0.49450     -0.49450      1.00000     -0.49449     -0.49449      1.00000
          2     -0.42336     -0.42336      1.00000     -0.42350     -0.42350      1.00000
          3     -0.42274     -0.42274      1.00000     -0.42259     -0.42259      1.00000
          4     -0.41943     -0.41943      1.00000     -0.41943     -0.41943      1.00000
          5     -0.40245     -0.40245      1.00000     -0.40215     -0.40215      1.00000
          6     -0.40137     -0.40137      1.00000     -0.40167     -0.40167      1.00000
          7     -0.36570     -0.36570      1.00000     -0.36572     -0.36572      1.00000
          8     -0.36114     -0.36114      1.00000     -0.36105     -0.36105      1.00000
          9     -0.36097     -0.36097      1.00000     -0.36090     -0.36090      1.00000
         10     -0.36009     -0.36009      1.00000     -0.36041     -0.36041      1.00000
         11     -0.35988     -0.35988      1.00000     -0.36015     -0.36015      1.00000
         12     -0.35924     -0.35924      1.00000     -0.35913     -0.35913      1.00000
         13     -0.35903     -0.35903      1.00000     -0.35871     -0.35871      1.00000
         14     -0.34749     -0.34749      1.00000     -0.34750     -0.34750      1.00000
         15     -0.34594     -0.34594      1.00000     -0.34593     -0.34593      1.00000
         16     -0.34489     -0.34489      1.00000     -0.34489     -0.34489      1.00000
         17     -0.33919     -0.33919      1.00000     -0.33923     -0.33923      1.00000
         18     -0.33824     -0.33824      1.00000     -0.33833     -0.33833      1.00000
         19     -0.33733     -0.33733      1.00000     -0.33713     -0.33713      1.00000
         20     -0.33567     -0.33567      1.00000     -0.33562     -0.33562      1.00000
         21     -0.33548     -0.33548      1.00000     -0.33558     -0.33558      1.00000
         22     -0.32406     -0.32406      1.00000     -0.32415     -0.32415      1.00000
         23     -0.32376     -0.32376      1.00000     -0.32366     -0.32366      1.00000
         24     -0.32330     -0.32330      1.00000     -0.32342     -0.32342      1.00000
         25     -0.32228     -0.32228      1.00000     -0.32208     -0.32208      1.00000
         26     -0.32160     -0.32160      1.00000     -0.32175     -0.32175      1.00000
         27     -0.32042     -0.32042      1.00000     -0.32036     -0.32036      1.00000
         28     -0.32011     -0.32011      1.00000     -0.32006     -0.32006      1.00000
         29     -0.31990     -0.31990      1.00000     -0.31999     -0.31999      1.00000
         30     -0.31350     -0.31350      1.00000     -0.31337     -0.31337      1.00000
         31     -0.31313     -0.31313      1.00000     -0.31328     -0.31328      1.00000
         32     -0.31234     -0.31234      1.00000     -0.31247     -0.31247      1.00000
         33     -0.31203     -0.31203      1.00000     -0.31202     -0.31202      1.00000
         34     -0.31196     -0.31196      1.00000     -0.31191     -0.31191      1.00000
         35     -0.31127     -0.31127      1.00000     -0.31128     -0.31128      1.00000
         36     -0.31091     -0.31091      1.00000     -0.31121     -0.31121      1.00000
         37     -0.31085     -0.31085      1.00000     -0.31072     -0.31072      1.00000
         38     -0.31081     -0.31081      1.00000     -0.31052     -0.31052      1.00000
         39     -0.31017     -0.31017      1.00000     -0.31027     -0.31027      1.00000
         40     -0.30957     -0.30957      1.00000     -0.31014     -0.31014      1.00000
         41     -0.30904     -0.30904      1.00000     -0.30839     -0.30839      1.00000
         42     -0.30592     -0.30592      1.00000     -0.30585     -0.30585      1.00000
         43     -0.30495     -0.30495      1.00000     -0.30496     -0.30496      1.00000
         44     -0.30483     -0.30483      1.00000     -0.30479     -0.30479      1.00000
         45     -0.30439     -0.30439      1.00000     -0.30446     -0.30446      1.00000
         46     -0.30335     -0.30335      1.00000     -0.30334     -0.30334      1.00000
         47     -0.30290     -0.30290      1.00000     -0.30296     -0.30296      1.00000
         48     -0.30008     -0.30008      1.00000     -0.30015     -0.30015      1.00000
         49     -0.29980     -0.29980      1.00000     -0.29976     -0.29976      1.00000
         50     -0.29717     -0.29717      1.00000     -0.29720     -0.29720      1.00000
         51     -0.29578     -0.29578      1.00000     -0.29602     -0.29602      1.00000
         52     -0.29554     -0.29554      1.00000     -0.29535     -0.29535      1.00000
         53     -0.29484     -0.29484      1.00000     -0.29495     -0.29495      1.00000
         54     -0.29471     -0.29471      1.00000     -0.29452     -0.29452      1.00000
         55     -0.29449     -0.29449      1.00000     -0.29432     -0.29432      1.00000
         56     -0.29398     -0.29398      1.00000     -0.29419     -0.29419      1.00000
         57     -0.29173     -0.29173      1.00000     -0.29220     -0.29220      1.00000
         58     -0.29158     -0.29158      1.00000     -0.29110     -0.29110      1.00000
         59     -0.28663     -0.28663      1.00000     -0.28737     -0.28737      1.00000
         60     -0.28582     -0.28582      1.00000     -0.28514     -0.28514      1.00000
         61     -0.28299     -0.28299      1.00000     -0.28303     -0.28303      1.00000
         62     -0.28245     -0.28245      1.00000     -0.28248     -0.28248      1.00000
         63     -0.28217     -0.28217      1.00000     -0.28203     -0.28203      1.00000
         64     -0.28157     -0.28157      1.00000     -0.28169     -0.28169      1.00000
         65     -0.28105     -0.28105      1.00000     -0.28129     -0.28129      1.00000
         66     -0.28103     -0.28103      1.00000     -0.28088     -0.28088      1.00000
         67     -0.28069     -0.28069      1.00000     -0.28077     -0.28077      1.00000
         68     -0.28060     -0.28060      1.00000     -0.28067     -0.28067      1.00000
         69     -0.28055     -0.28055      1.00000     -0.28033     -0.28033      1.00000
         70     -0.28000     -0.28000      1.00000     -0.28013     -0.28013      1.00000
         71     -0.27963     -0.27963      1.00000     -0.28000     -0.28000      1.00000
         72     -0.27948     -0.27948      1.00000     -0.27914     -0.27914      1.00000
         73     -0.27867     -0.27867      1.00000     -0.27907     -0.27907      1.00000
         74     -0.27855     -0.27855      1.00000     -0.27831     -0.27831      1.00000
         75     -0.27822     -0.27822      1.00000     -0.27825     -0.27825      1.00000
[...]
   2)
      1 : -0.0427  0.0712  5.0774
   3)
      1 : -0.0410  0.0762  0.0767  5.0807
   4)
      1 : -0.0424  0.0124  0.0100  0.0107  5.0775
   5)
      1 : -0.0424  0.0101  0.0123  0.0108  0.0721  5.0792
   6)
      1 : -0.0417  0.0106  0.0106  0.0099  0.0760  0.0769  5.0832
   7)
      1 : -0.0422  0.0162  0.0728  0.0693  0.0134  0.0685  0.0625  5.0958
   8)
      1 : -0.0422  0.0730  0.0162  0.0692  0.0682  0.0135  0.0627  0.0696  5.0937
   9)
      1 : -0.0417  0.0688  0.0684  0.0142  0.0647  0.0644  0.0142  0.0759  0.0755  5.0917
  10)
      1 : -0.0421  0.0685  0.0132  0.0621  0.0739  0.0161  0.0671  0.0099  0.0125  0.0104
     11 :  5.0905
  11)
      1 : -0.0421  0.0636  0.0631  0.0140  0.0704  0.0700  0.0140  0.0107  0.0107  0.0108
     11 :  0.0765  5.0931
  12)
      1 : -0.0422  0.0131  0.0680  0.0621  0.0160  0.0734  0.0677  0.0126  0.0100  0.0105
     11 :  0.0665  0.0760  5.0918
  13)
      1 : -0.0935 -0.0298 -0.0299  0.0182  0.0022  0.0018 -0.0318  0.0090  0.0091 -0.0089
     11 : -0.0022  0.0092 -0.0022  5.9936
  14)
      1 : -0.0923  0.0196 -0.0305 -0.0299 -0.0292 -0.0010  0.0021 -0.0088  0.0127  0.0136
     11 : -0.0030 -0.0023  0.0105 -0.0991  6.0001
  15)
      1 : -0.0930 -0.0313  0.0184 -0.0303 -0.0010 -0.0297  0.0026  0.0116 -0.0096  0.0130
     11 :  0.0106 -0.0019 -0.0033 -0.0974 -0.1107  6.0103
  16)
      1 : -0.0911 -0.0286  0.0010  0.0030  0.0159 -0.0294 -0.0284  0.0099 -0.0028 -0.0010
     11 :  0.0115  0.0117 -0.0095 -0.0125 -0.2994  0.0032  6.0108
  17)
      1 : -0.0910  0.0014 -0.0280  0.0028 -0.0294  0.0158 -0.0289 -0.0032  0.0096 -0.0015
     11 : -0.0098  0.0120  0.0117 -0.0122  0.0045 -0.3013 -0.1173  6.0091
  18)
      1 : -0.0929  0.0018  0.0017 -0.0331 -0.0286 -0.0282  0.0172  0.0006  0.0012  0.0081
     11 :  0.0151 -0.0103  0.0154 -0.2834 -0.0153 -0.0169 -0.0968 -0.0921  5.9558
  19)
      1 : -0.0920  0.0142 -0.0110  0.0133 -0.0028  0.0105 -0.0015  0.0017 -0.0287  0.0021
     11 :  0.0172 -0.0286 -0.0307  0.1436  0.1368 -0.1701  0.1448 -0.1768  0.1465  6.0097
  20)
      1 : -0.0887  0.0135  0.0134 -0.0121 -0.0028 -0.0029  0.0102  0.0007  0.0006 -0.0297
     11 : -0.0286  0.0142 -0.0281 -0.1646  0.1438  0.1448  0.1403  0.1369 -0.1749 -0.1040
     21 :  5.9856
  21)
      1 : -0.0919 -0.0110  0.0149  0.0138  0.0106 -0.0027 -0.0014 -0.0288  0.0012  0.0020
     11 : -0.0309 -0.0279  0.0171  0.1461 -0.1688  0.1395 -0.1762  0.1408  0.1461 -0.1050
     21 : -0.1069  6.0065
  22)
      1 : -0.0915 -0.0026 -0.0027  0.0113  0.0096  0.0095 -0.0094 -0.0302 -0.0304  0.0088
     11 :  0.0014 -0.0325  0.0016 -0.1874  0.1527  0.1487  0.1499  0.1502 -0.1668 -0.0018
     21 : -0.3140 -0.0022  6.0581
  23)
      1 : -0.0941  0.0091 -0.0027 -0.0040 -0.0118  0.0149  0.0107  0.0130 -0.0297 -0.0293
     11 :  0.0021  0.0011 -0.0301  0.1521 -0.1785  0.1461 -0.1707  0.1447  0.1389 -0.0118
     21 :  0.0046 -0.3025 -0.1234  6.0110
  24)
      1 : -0.0932 -0.0026  0.0092 -0.0041  0.0156 -0.0118  0.0119 -0.0292  0.0145 -0.0293
     11 : -0.0291  0.0006  0.0020  0.1511  0.1441 -0.1777  0.1416 -0.1682  0.1365 -0.3010
     21 :  0.0044 -0.0101 -0.1197 -0.0853  5.9958
  25)
      1 : -0.0419  0.0029  0.0010  0.0014 -0.0001  0.0029  0.0031  0.0012  0.0009  0.0002
     11 : -0.0002 -0.0001 -0.0000 -0.0308  0.0179 -0.0310 -0.0284  0.0040 -0.0012 -0.0064
     21 : -0.0009  0.0117  0.0161 -0.0118  0.0139  5.0881
  26)
      1 : -0.0421  0.0011  0.0029  0.0014  0.0028 -0.0000  0.0031  0.0011  0.0014  0.0002
     11 : -0.0000 -0.0002 -0.0003 -0.0312 -0.0313  0.0168  0.0049 -0.0274 -0.0012  0.0114
     21 : -0.0010 -0.0057  0.0166  0.0143 -0.0117  0.0621  5.0883
  27)
      1 : -0.0435  0.0010  0.0011  0.0029  0.0029  0.0030 -0.0000  0.0004  0.0004  0.0011
     11 :  0.0000  0.0003 -0.0000  0.0175 -0.0294 -0.0296 -0.0009 -0.0013 -0.0292 -0.0019
     21 :  0.0088 -0.0016 -0.0127  0.0102  0.0107  0.0697  0.0699  5.0889
  28)
      1 : -0.0392  0.0009  0.0029  0.0032  0.0027  0.0008  0.0010  0.0000 -0.0000  0.0000
     11 :  0.0012  0.0009  0.0010  0.0011 -0.0326 -0.0010  0.0173 -0.0201 -0.0301  0.0071
     21 :  0.0053 -0.0088 -0.0001  0.0122 -0.0023  0.0138  0.0100  0.0109  5.0849
  29)
      1 : -0.0400  0.0030  0.0008  0.0033  0.0008  0.0028  0.0011 -0.0000  0.0001 -0.0000
     11 :  0.0010  0.0007  0.0011  0.0005 -0.0009 -0.0323 -0.0200  0.0205 -0.0303 -0.0096
     21 :  0.0095  0.0117  0.0004 -0.0033  0.0118  0.0099  0.0129  0.0108  0.0651  5.0848
  30)
      1 : -0.0432  0.0029  0.0028 -0.0000  0.0011  0.0011  0.0030 -0.0001 -0.0001 -0.0001
     11 :  0.0006  0.0009  0.0006 -0.0337  0.0052  0.0049 -0.0327 -0.0325  0.0165  0.0145
     21 : -0.0057  0.0139  0.0088 -0.0033 -0.0027  0.0105  0.0104  0.0133  0.0749  0.0720
     31 :  5.0903
  31)
      1 : -0.0438  0.0005  0.0012  0.0006 -0.0003  0.0003  0.0000  0.0030  0.0004  0.0029
     11 :  0.0029  0.0008  0.0012  0.0141  0.0140 -0.0118  0.0004  0.0085 -0.0011  0.0184
     21 : -0.0299 -0.0338  0.0028 -0.0002 -0.0310  0.0702  0.0150  0.0694  0.0716  0.0146
     31 :  0.0664  5.0884
  32)
      1 : -0.0423  0.0001  0.0000  0.0001 -0.0000  0.0000 -0.0001  0.0030  0.0030  0.0004
     11 :  0.0010  0.0032  0.0011 -0.0125  0.0202  0.0187 -0.0052 -0.0055  0.0131 -0.0263
     21 :  0.0167 -0.0271 -0.0373  0.0008  0.0012  0.0652  0.0646  0.0144  0.0607  0.0617
     31 :  0.0125  0.0799  5.0937
  33)
      1 : -0.0439  0.0012  0.0005  0.0006  0.0003 -0.0002 -0.0000  0.0003  0.0030  0.0029
     11 :  0.0011  0.0009  0.0029  0.0144 -0.0111  0.0136  0.0079  0.0001 -0.0011 -0.0331
     21 : -0.0299  0.0176  0.0025 -0.0309 -0.0003  0.0151  0.0707  0.0704  0.0152  0.0719
     31 :  0.0657  0.0743  0.0795  5.0884
  34)
      1 : -0.0473 -0.0004  0.0001 -0.0002  0.0001  0.0005  0.0001  0.0012  0.0036  0.0012
     11 : -0.0005  0.0028  0.0027 -0.0044 -0.0042  0.0085  0.0275 -0.0103  0.0252 -0.0275
     21 :  0.0038  0.0013 -0.0302 -0.0336  0.0255  0.0684  0.0119  0.0700  0.0637  0.0115
     31 :  0.0647  0.0090  0.0100  0.0103  5.0946
  35)
      1 : -0.0347  0.0000  0.0001 -0.0001  0.0019  0.0020  0.0015  0.0009  0.0009  0.0025
     11 :  0.0024  0.0014  0.0024  0.0118  0.0011  0.0008 -0.0073 -0.0082 -0.0093  0.0027
     21 : -0.0270  0.0025 -0.0133 -0.0292 -0.0284  0.0688  0.0687  0.0192  0.0656  0.0627
     31 :  0.0166  0.0113  0.0122  0.0115  0.0806  5.0994
  36)
      1 : -0.0464  0.0002 -0.0003 -0.0001  0.0006  0.0001  0.0001  0.0035  0.0011  0.0011
     11 :  0.0026  0.0028 -0.0003 -0.0039  0.0084 -0.0040 -0.0108  0.0248  0.0223  0.0016
     21 :  0.0033 -0.0281 -0.0298  0.0227 -0.0327  0.0128  0.0687  0.0698  0.0127  0.0642
     31 :  0.0654  0.0104  0.0103  0.0096  0.0745  0.0829  5.0910

              ** SPIN 2
 ATOM         CORE    1       2       3       4       5       6       7       8       9
           -------------------------------------------------------------------------------
   0)
      1 :  2.1187
   1)
      1 : -0.0419  5.0915
   2)
      1 : -0.0421  0.0783  5.0910
   3)
      1 : -0.0424  0.0732  0.0734  5.0844
   4)
      1 : -0.0414  0.0104  0.0108  0.0103  5.0923
   5)
      1 : -0.0416  0.0109  0.0106  0.0102  0.0795  5.0924
   6)
      1 : -0.0432  0.0101  0.0100  0.0128  0.0722  0.0728  5.0861
   7)
      1 : -0.0422  0.0142  0.0617  0.0676  0.0148  0.0679  0.0729  5.0852
   8)
      1 : -0.0421  0.0616  0.0142  0.0680  0.0672  0.0150  0.0729  0.0788  5.0847
   9)
      1 : -0.0421  0.0654  0.0655  0.0131  0.0710  0.0713  0.0165  0.0715  0.0705  5.0821
  10)
      1 : -0.0419  0.0675  0.0147  0.0723  0.0615  0.0142  0.0662  0.0104  0.0117  0.0104
     11 :  5.0813
  11)
      1 : -0.0425  0.0700  0.0700  0.0161  0.0666  0.0669  0.0127  0.0106  0.0105  0.0133
     11 :  0.0711  5.0843
  12)
      1 : -0.0421  0.0146  0.0674  0.0726  0.0142  0.0617  0.0662  0.0118  0.0105  0.0104
     11 :  0.0761  0.0714  5.0811
  13)
      1 : -0.0937 -0.0305 -0.0309  0.0174  0.0017  0.0011 -0.0292  0.0132  0.0135 -0.0088
     11 : -0.0046  0.0101 -0.0047  6.0069
  14)
      1 : -0.0912  0.0142 -0.0303 -0.0304 -0.0297  0.0002  0.0017 -0.0098  0.0094  0.0123
     11 : -0.0028 -0.0034  0.0112 -0.1115  6.0137
  15)
      1 : -0.0921 -0.0312  0.0139 -0.0308  0.0000 -0.0301  0.0021  0.0089 -0.0105  0.0123
     11 :  0.0112 -0.0030 -0.0033 -0.1099 -0.0997  6.0209
  16)
      1 : -0.0902 -0.0293  0.0019  0.0021  0.0107 -0.0294 -0.0293  0.0107 -0.0025 -0.0018
     11 :  0.0087  0.0108 -0.0102 -0.0048 -0.3069  0.0005  6.0223
  17)
      1 : -0.0901  0.0023 -0.0286  0.0019 -0.0294  0.0110 -0.0297 -0.0029  0.0103 -0.0024
     11 : -0.0104  0.0115  0.0093 -0.0043  0.0018 -0.3079 -0.1074  6.0181
  18)
      1 : -0.0930  0.0015  0.0013 -0.0299 -0.0289 -0.0287  0.0178 -0.0024 -0.0016  0.0086
     11 :  0.0189 -0.0104  0.0189 -0.2898 -0.0070 -0.0086 -0.1072 -0.1030  5.9670
  19)
      1 : -0.0923  0.0123 -0.0109  0.0123 -0.0001  0.0096 -0.0010  0.0029 -0.0300  0.0020
     11 :  0.0191 -0.0279 -0.0311  0.1467  0.1352 -0.1777  0.1452 -0.1698  0.1429  5.9960
  20)
      1 : -0.0900  0.0163  0.0164 -0.0114 -0.0025 -0.0028  0.0098 -0.0000 -0.0001 -0.0287
     11 : -0.0278  0.0218 -0.0274 -0.1679  0.1448  0.1456  0.1400  0.1367 -0.1691 -0.1080
     21 :  5.9805
  21)
      1 : -0.0922 -0.0109  0.0131  0.0130  0.0096 -0.0000 -0.0007 -0.0304  0.0023  0.0018
     11 : -0.0311 -0.0272  0.0192  0.1490 -0.1761  0.1387 -0.1694  0.1407  0.1426 -0.0822
     21 : -0.1095  5.9890
  22)
      1 : -0.0923 -0.0026 -0.0028  0.0109  0.0118  0.0117 -0.0083 -0.0295 -0.0297  0.0147
     11 :  0.0008 -0.0314  0.0010 -0.1808  0.1514  0.1474  0.1514  0.1516 -0.1710 -0.0019
     21 : -0.3081 -0.0028  6.0542
  23)
      1 : -0.0945  0.0082  0.0000 -0.0032 -0.0114  0.0129  0.0104  0.0155 -0.0297 -0.0287
     11 :  0.0033  0.0008 -0.0320  0.1497 -0.1730  0.1463 -0.1789  0.1451  0.1417 -0.0262
     21 :  0.0034 -0.2931 -0.1269  5.9933
  24)
      1 : -0.0935  0.0002  0.0084 -0.0034  0.0137 -0.0114  0.0116 -0.0294  0.0168 -0.0288
     11 : -0.0309  0.0003  0.0032  0.1486  0.1449 -0.1717  0.1418 -0.1764  0.1394 -0.2926
     21 :  0.0037 -0.0247 -0.1245 -0.0625  5.9809
  25)
      1 : -0.0429  0.0032  0.0010  0.0014  0.0001  0.0028  0.0028  0.0009  0.0006  0.0003
     11 :  0.0000 -0.0002 -0.0000 -0.0304  0.0109 -0.0310 -0.0291  0.0055 -0.0014 -0.0034
     21 : -0.0013  0.0101  0.0212 -0.0118  0.0128  5.0924
  26)
      1 : -0.0432  0.0010  0.0032  0.0014  0.0027  0.0001  0.0028  0.0008  0.0010  0.0003
     11 : -0.0000 -0.0003 -0.0000 -0.0308 -0.0317  0.0104  0.0064 -0.0281 -0.0014  0.0100
     21 : -0.0015 -0.0027  0.0216  0.0134 -0.0117  0.0806  5.0929
  27)
      1 : -0.0454  0.0010  0.0010  0.0029  0.0027  0.0028 -0.0001  0.0003  0.0004  0.0011
     11 : -0.0002  0.0003 -0.0002  0.0171 -0.0302 -0.0303 -0.0004 -0.0009 -0.0278 -0.0012
     21 :  0.0084 -0.0007 -0.0124  0.0118  0.0124  0.0741  0.0739  5.0902
  28)
      1 : -0.0403  0.0010  0.0027  0.0029  0.0029  0.0008  0.0009  0.0000  0.0002 -0.0001
     11 :  0.0009  0.0009  0.0007  0.0009 -0.0328  0.0009  0.0096 -0.0205 -0.0293  0.0066
     21 :  0.0107 -0.0098 -0.0006  0.0115  0.0002  0.0093  0.0105  0.0105  5.0907
  29)
      1 : -0.0412  0.0029  0.0009  0.0030  0.0008  0.0030  0.0010  0.0002  0.0001 -0.0002
     11 :  0.0007  0.0008  0.0008  0.0004  0.0010 -0.0327 -0.0206  0.0135 -0.0297 -0.0107
     21 :  0.0150  0.0113 -0.0003 -0.0008  0.0112  0.0105  0.0087  0.0103  0.0843  5.0907
  30)
      1 : -0.0451  0.0027  0.0026 -0.0000  0.0010  0.0010  0.0031 -0.0003 -0.0003 -0.0001
     11 :  0.0007  0.0008  0.0007 -0.0330  0.0061  0.0058 -0.0341 -0.0339  0.0173  0.0159
     21 : -0.0054  0.0150  0.0081 -0.0021 -0.0018  0.0103  0.0101  0.0129  0.0799  0.0765
     31 :  5.0931
  31)
      1 : -0.0418  0.0006  0.0014  0.0007  0.0000  0.0003 -0.0001  0.0034  0.0004  0.0031
     11 :  0.0028  0.0009  0.0012  0.0147  0.0093 -0.0119  0.0007  0.0094 -0.0027  0.0211
     21 : -0.0296 -0.0327  0.0019 -0.0001 -0.0320  0.0611  0.0142  0.0701  0.0678  0.0148
     31 :  0.0706  5.0856
  32)
      1 : -0.0421  0.0002  0.0001  0.0005 -0.0001 -0.0001 -0.0000  0.0032  0.0032  0.0004
     11 :  0.0011  0.0029  0.0011 -0.0115  0.0168  0.0159 -0.0063 -0.0066  0.0141 -0.0264
     21 :  0.0239 -0.0271 -0.0355 -0.0005 -0.0002  0.0675  0.0679  0.0141  0.0661  0.0671
     31 :  0.0143  0.0668  5.0846
  33)
      1 : -0.0419  0.0013  0.0005  0.0006  0.0003  0.0001 -0.0001  0.0002  0.0034  0.0031
     11 :  0.0012  0.0009  0.0029  0.0150 -0.0113  0.0090  0.0088  0.0004 -0.0028 -0.0322
     21 : -0.0297  0.0206  0.0016 -0.0321 -0.0000  0.0144  0.0617  0.0705  0.0153  0.0682
     31 :  0.0696  0.0732  0.0671  5.0856
  34)
      1 : -0.0452 -0.0001  0.0001 -0.0003  0.0001  0.0007  0.0002  0.0013  0.0034  0.0012
     11 : -0.0005  0.0030  0.0031 -0.0062 -0.0039  0.0093  0.0223 -0.0102  0.0258 -0.0288
     21 :  0.0026  0.0020 -0.0301 -0.0329  0.0289  0.0645  0.0124  0.0743  0.0546  0.0108
     31 :  0.0658  0.0104  0.0096  0.0111  5.0907
  35)
      1 : -0.0345 -0.0000 -0.0000 -0.0001  0.0021  0.0021  0.0018  0.0009  0.0009  0.0024
     11 :  0.0025  0.0013  0.0025  0.0129 -0.0004 -0.0007 -0.0104 -0.0107 -0.0084  0.0016
     21 : -0.0257  0.0016 -0.0072 -0.0294 -0.0286  0.0742  0.0742  0.0204  0.0675  0.0659
     31 :  0.0160  0.0112  0.0183  0.0114  0.0674  5.0892
  36)
      1 : -0.0443  0.0001  0.0000 -0.0003  0.0008  0.0002  0.0002  0.0033  0.0011  0.0011
     11 :  0.0030  0.0031 -0.0004 -0.0057  0.0092 -0.0036 -0.0107  0.0194  0.0228  0.0024
     21 :  0.0022 -0.0297 -0.0299  0.0262 -0.0322  0.0130  0.0651  0.0737  0.0121  0.0551
     31 :  0.0658  0.0111  0.0099  0.0109  0.0738  0.0703  5.0884



 ======================
 Atomic Charge Analysis
 ======================
  
 Deformation charges with respect to neutral atoms.
 
   ----------------------------------------------------------
     Atom      Hirshfeld     Voronoi         CM5    Mulliken
   ----------------------------------------------------------
      1  Cu       -0.008      -0.015      -0.008       0.026
      2  Cu       -0.008      -0.013      -0.008       0.026
      3  Cu       -0.012      -0.019      -0.012       0.030
      4  Cu       -0.009      -0.015      -0.009       0.028
      5  Cu       -0.009      -0.015      -0.009       0.026
      6  Cu       -0.009      -0.017      -0.009       0.024
      7  Cu       -0.009      -0.016      -0.009       0.018
      8  Cu       -0.009      -0.013      -0.009       0.019
      9  Cu       -0.004      -0.008      -0.004       0.028
     10  Cu       -0.007      -0.012      -0.007       0.026
     11  Cu       -0.006      -0.012      -0.006       0.022
     12  Cu       -0.007      -0.012      -0.007       0.025
     13  Cu        0.020       0.032       0.020      -0.054
     14  Cu        0.014       0.026       0.014      -0.041
     15  Cu        0.014       0.024       0.014      -0.040
     16  Cu        0.017       0.029       0.017      -0.047
     17  Cu        0.016       0.028       0.016      -0.048
     18  Cu        0.015       0.026       0.015      -0.046
     19  Cu        0.017       0.029       0.017      -0.053
     20  Cu        0.012       0.024       0.012      -0.044
     21  Cu        0.017       0.028       0.017      -0.052
     22  Cu        0.017       0.029       0.017      -0.044
     23  Cu        0.016       0.029       0.016      -0.046
     24  Cu        0.015       0.027       0.015      -0.042
     25  Cu       -0.012      -0.018      -0.012       0.027
     26  Cu       -0.012      -0.019      -0.012       0.025
     27  Cu       -0.003      -0.007      -0.003       0.005
     28  Cu       -0.008      -0.013      -0.008       0.038
     29  Cu       -0.009      -0.015      -0.009       0.032
     30  Cu       -0.004      -0.008      -0.004       0.005
     31  Cu       -0.007      -0.014      -0.007       0.021
     32  Cu       -0.011      -0.019      -0.011       0.029
     33  Cu       -0.007      -0.012      -0.007       0.019
     34  Cu       -0.010      -0.017      -0.010      -0.006
     35  Cu       -0.004      -0.011      -0.004       0.061
     36  Cu       -0.007      -0.012      -0.007       0.002
   ----------------------------------------------------------
      Total:       0.000      -0.000       0.000      -0.000
   ----------------------------------------------------------
 



 ============================================
 Atomic Charge Analysis (Spin Up - Spin Down)
 ============================================
  
   ----------------------------------------------------------
     Atom      Hirshfeld     Voronoi         CM5    Mulliken
   ----------------------------------------------------------
      1  Cu        0.013       0.012       0.013       0.006
      2  Cu        0.013       0.011       0.013       0.006
      3  Cu        0.007       0.011       0.007       0.016
      4  Cu        0.012       0.011       0.012       0.004
      5  Cu        0.011       0.010       0.011       0.004
      6  Cu        0.006       0.010       0.006       0.015
      7  Cu       -0.010      -0.012      -0.010      -0.010
      8  Cu       -0.009      -0.011      -0.009      -0.009
      9  Cu       -0.010      -0.006      -0.010      -0.004
     10  Cu       -0.009      -0.011      -0.009      -0.010
     11  Cu       -0.009      -0.005      -0.009      -0.003
     12  Cu       -0.010      -0.012      -0.010      -0.010
     13  Cu        0.005       0.005       0.005       0.006
     14  Cu       -0.008      -0.010      -0.008      -0.017
     15  Cu       -0.008      -0.010      -0.008      -0.016
     16  Cu       -0.008      -0.010      -0.008      -0.017
     17  Cu       -0.009      -0.011      -0.009      -0.017
     18  Cu        0.006       0.006       0.006       0.007
     19  Cu       -0.000      -0.000      -0.000       0.002
     20  Cu        0.015       0.017       0.015       0.026
     21  Cu       -0.002      -0.002      -0.002       0.000
     22  Cu        0.014       0.015       0.014       0.022
     23  Cu       -0.002      -0.001      -0.002       0.001
     24  Cu       -0.000       0.000      -0.000       0.003
     25  Cu        0.011       0.014       0.011       0.015
     26  Cu        0.011       0.015       0.011       0.017
     27  Cu        0.007       0.016       0.007       0.021
     28  Cu        0.012       0.015       0.012       0.017
     29  Cu        0.012       0.015       0.012       0.018
     30  Cu        0.011       0.020       0.011       0.024
     31  Cu       -0.011      -0.017      -0.011      -0.023
     32  Cu       -0.013      -0.015      -0.013      -0.011
     33  Cu       -0.011      -0.018      -0.011      -0.023
     34  Cu       -0.011      -0.018      -0.011      -0.024
     35  Cu       -0.017      -0.018      -0.017      -0.014
     36  Cu       -0.010      -0.017      -0.010      -0.023
   ----------------------------------------------------------
      Total:      -0.000      -0.000      -0.000       0.000
   ----------------------------------------------------------
 
 WARNING: matrix written, but never read. Matrix name: S(C/C)**-1


    =====================
     CALCULATION RESULTS
    =====================

Energy (hartree)            -4.84554320



 =================
 Timing Statistics
 =================
  
 Total Used :                     CPU=     4662.33      System=      158.57     Elapsed=     4972.17

 Calls  Section                     ( Mean, Percentage )
 ---------------------------------------------------------------------------------------------------
     3  ><      ................      3.12    0.20             0.65    1.23             4.15    0.25
     1  GETINP  ................      0.39    0.01             0.06    0.04             2.67    0.05
    58  EIGSYS  ................     80.22   99.79             2.70   98.73            85.47   99.70

AMS application finished. Exiting.
 NORMAL TERMINATION
     Total cpu time:    4667.85
  Total system time:     161.00
 Total elapsed time:    4980.80